<?xml version="1.0"?>
<VTKFile type="UnstructuredGrid"  version="0.1"  >
<UnstructuredGrid>
<Piece  NumberOfPoints="3091" NumberOfCells="6066">
<Points>
<DataArray  type="Float64"  NumberOfComponents="3"  format="ascii">0.1026080539034498 0.008977041503008791 0  0.1021188207215025 0.01344419779866531 0  0.08228992349402627 0.01083367395426428 0  0.08258238701482568 0.008315609113802332 0  0.08059244997832385 0.00811523299057818 0  0.07850770368624711 0.01993841673534844 0  0.08044616550566062 0.02043072332140642 0  0.08103256859095448 0.01796448795686254 0  0.1005584887333531 0.02229328023562459 0  0.09949036010777403 0.02665836164555964 0  0.09823284592706737 0.03097269734894013 0  0.07915850691210284 0.02495858135885467 0  0.07988378462565272 0.02252955733880117 0  0.07795887415274544 0.02198667643907102 0  0.07385272552974417 0.03326822706169166 0  0.07567624961689835 0.03408966476691861 0  0.07668200119843681 0.03176272488630245 0  0.09515959184866253 0.03941639353360425 0  0.09334970206477494 0.04352968095929204 0  0.09136211581735683 0.04756010716320849 0  0.0736218991537924 0.03832513489850781 0  0.07475795386377479 0.03605895636456662 0  0.07295655738512961 0.03519006584975778 0  0.06695376967930228 0.04558719914330055 0  0.06860694917755666 0.04671280899869069 0  0.07000149000246952 0.04459586749278639 0  0.08686931891872722 0.05534185965972286 0  0.08437266056176615 0.05907837294415774 0  0.08171539404999721 0.06270242718789822 0  0.06584832724417253 0.05052719860772381 0  0.06736064050309602 0.04849272224790706 0  0.065737492539166 0.04732422291663219 0  0.058020457417397 0.05652102724717609 0  0.05945306130424632 0.05791660816685945 0  0.0611940189552403 0.0560739872320998 0  0.07593956569144278 0.069585791384413 0  0.0728319984622144 0.07283199846221439 0  0.06958579138441301 0.07593956569144276 0  0.05607398723209981 0.06119401895524029 0  0.05791660816685946 0.0594530613042463 0  0.0565210272471761 0.05802045741739699 0  0.0473242229166322 0.06573749253916598 0  0.04849272224790706 0.06736064050309601 0  0.05052719860772382 0.06584832724417251 0  0.06270242718789823 0.08171539404999721 0  0.05907837294415775 0.08437266056176614 0  0.05534185965972286 0.08686931891872721 0  0.04459586749278639 0.07000149000246951 0  0.0467128089986907 0.06860694917755665 0  0.04558719914330056 0.06695376967930228 0  0.03519006584975779 0.07295655738512961 0  0.03605895636456662 0.07475795386377479 0  0.03832513489850781 0.0736218991537924 0  0.04756010716320849 0.09136211581735683 0  0.04352968095929206 0.09334970206477493 0  0.03941639353360425 0.09515959184866253 0  0.03176272488630246 0.07668200119843681 0  0.03408966476691862 0.07567624961689835 0  0.03326822706169167 0.07385272552974417 0  0.02198667643907102 0.07795887415274544 0  0.02252955733880117 0.07988378462565272 0  0.02495858135885468 0.07915850691210283 0  0.03097269734894014 0.09823284592706735 0  0.02665836164555966 0.09949036010777403 0  0.0222932802356246 0.1005584887333531 0  0.01796448795686254 0.08103256859095448 0  0.02043072332140643 0.08044616550566062 0  0.01993841673534845 0.07850770368624711 0  0.008115232990578182 0.08059244997832385 0  0.008315609113802334 0.08258238701482568 0  0.01083367395426429 0.08228992349402627 0  0.01344419779866533 0.1021188207215025 0  0.00897704150300881 0.1026080539034498 0  0.004492796898629609 0.1029019668229313 0  0.003620409151322889 0.0829210023912942 0  0.006151004686218146 0.08277176536325732 0  0.006002787705827346 0.08077726499305835 0  -0.006002787705827337 0.08077726499305835 0  -0.006151004686218136 0.08277176536325732 0  -0.003620409151322879 0.0829210023912942 0  -0.004492796898629596 0.1029019668229313 0  -0.008977041503008775 0.1026080539034498 0  -0.01344419779866531 0.1021188207215025 0  -0.01083367395426428 0.08228992349402627 0  -0.008315609113802325 0.08258238701482568 0  -0.008115232990578173 0.08059244997832385 0  -0.01993841673534844 0.07850770368624711 0  -0.02043072332140642 0.08044616550566062 0  -0.01796448795686253 0.08103256859095448 0  -0.02229328023562459 0.1005584887333531 0  -0.02665836164555962 0.09949036010777403 0  -0.03097269734894013 0.09823284592706737 0  -0.02495858135885468 0.07915850691210284 0  -0.02252955733880116 0.07988378462565272 0  -0.02198667643907101 0.07795887415274544 0  -0.03326822706169166 0.07385272552974417 0  -0.03408966476691862 0.07567624961689835 0  -0.03176272488630245 0.07668200119843681 0  -0.03941639353360424 0.09515959184866253 0  -0.04352968095929203 0.09334970206477496 0  -0.04756010716320848 0.09136211581735684 0  -0.03832513489850781 0.07362189915379241 0  -0.03605895636456662 0.07475795386377479 0  -0.03519006584975778 0.07295655738512961 0  -0.04558719914330055 0.06695376967930228 0  -0.04671280899869069 0.06860694917755666 0  -0.04459586749278639 0.07000149000246951 0  -0.05534185965972286 0.08686931891872721 0  -0.05907837294415771 0.08437266056176618 0  -0.06270242718789819 0.08171539404999724 0  -0.05052719860772379 0.06584832724417254 0  -0.04849272224790704 0.06736064050309604 0  -0.04732422291663217 0.06573749253916601 0  -0.05652102724717608 0.05802045741739702 0  -0.05791660816685944 0.05945306130424632 0  -0.0560739872320998 0.0611940189552403 0  -0.069585791384413 0.07593956569144278 0  -0.07283199846221439 0.0728319984622144 0  -0.07593956569144276 0.06958579138441301 0  -0.06119401895524029 0.05607398723209981 0  -0.0594530613042463 0.05791660816685946 0  -0.058020457417397 0.0565210272471761 0  -0.065737492539166 0.04732422291663219 0  -0.06736064050309602 0.04849272224790706 0  -0.0658483272441725 0.05052719860772384 0  -0.0817153940499972 0.06270242718789824 0  -0.08437266056176614 0.05907837294415778 0  -0.08686931891872721 0.05534185965972288 0  -0.0700014900024695 0.04459586749278641 0  -0.06860694917755665 0.04671280899869071 0  -0.06695376967930228 0.04558719914330057 0  -0.07295655738512961 0.03519006584975779 0  -0.07475795386377479 0.03605895636456663 0  -0.07362189915379239 0.03832513489850785 0  -0.09136211581735681 0.04756010716320853 0  -0.09334970206477494 0.04352968095929204 0  -0.09515959184866253 0.03941639353360425 0  -0.07668200119843681 0.03176272488630246 0  -0.07567624961689835 0.03408966476691861 0  -0.07385272552974417 0.03326822706169166 0  -0.07795887415274544 0.02198667643907101 0  -0.07988378462565272 0.02252955733880116 0  -0.07915850691210286 0.02495858135885465 0  -0.09823284592706738 0.03097269734894011 0  -0.09949036010777403 0.02665836164555966 0  -0.1005584887333531 0.02229328023562463 0  -0.08103256859095447 0.01796448795686257 0  -0.08044616550566062 0.02043072332140644 0  -0.07850770368624711 0.01993841673534845 0  -0.08059244997832385 0.008115232990578187 0  -0.08258238701482568 0.008315609113802341 0  -0.08228992349402627 0.01083367395426428 0  -0.1021188207215025 0.01344419779866531 0  -0.1026080539034498 0.008977041503008839 0  -0.1029019668229313 0.004492796898629661 0  -0.0829210023912942 0.003620409151322931 0  -0.08277176536325731 0.006151004686218169 0  -0.08077726499305833 0.00600278770582737 0  -0.08077726499305835 -0.006002787705827315 0  -0.08277176536325732 -0.006151004686218113 0  -0.0829210023912942 -0.003620409151322874 0  -0.1029019668229313 -0.00449279689862959 0  -0.1026080539034498 -0.008977041503008768 0  -0.1021188207215025 -0.01344419779866529 0  -0.08228992349402628 -0.01083367395426426 0  -0.08258238701482568 -0.00831560911380232 0  -0.08059244997832385 -0.008115232990578166 0  -0.07850770368624711 -0.01993841673534843 0  -0.08044616550566062 -0.02043072332140642 0  -0.08103256859095448 -0.01796448795686251 0  -0.1005584887333531 -0.02229328023562456 0  -0.09949036010777404 -0.02665836164555959 0  -0.09823284592706738 -0.03097269734894008 0  -0.07915850691210286 -0.02495858135885463 0  -0.07988378462565274 -0.02252955733880114 0  -0.07795887415274544 -0.02198667643907099 0  -0.07385272552974419 -0.03326822706169164 0  -0.07567624961689837 -0.0340896647669186 0  -0.07668200119843682 -0.03176272488630241 0  -0.09515959184866256 -0.03941639353360419 0  -0.09334970206477496 -0.04352968095929202 0  -0.09136211581735684 -0.04756010716320847 0  -0.07362189915379241 -0.0383251348985078 0  -0.0747579538637748 -0.03605895636456661 0  -0.07295655738512963 -0.03519006584975778 0  -0.06695376967930228 -0.04558719914330055 0  -0.06860694917755666 -0.04671280899869069 0  -0.07000149000246951 -0.04459586749278639 0  -0.08686931891872721 -0.05534185965972286 0  -0.08437266056176618 -0.05907837294415771 0  -0.08171539404999724 -0.06270242718789819 0  -0.06584832724417254 -0.05052719860772379 0  -0.06736064050309604 -0.04849272224790704 0  -0.06573749253916601 -0.04732422291663217 0  -0.05802045741739702 -0.05652102724717608 0  -0.05945306130424632 -0.05791660816685944 0  -0.0611940189552403 -0.0560739872320998 0  -0.07593956569144278 -0.069585791384413 0  -0.0728319984622144 -0.07283199846221439 0  -0.06958579138441302 -0.07593956569144275 0  -0.05607398723209982 -0.06119401895524029 0  -0.05791660816685946 -0.0594530613042463 0  -0.0565210272471761 -0.05802045741739699 0  -0.04732422291663223 -0.06573749253916598 0  -0.04849272224790709 -0.06736064050309601 0  -0.05052719860772384 -0.0658483272441725 0  -0.06270242718789824 -0.0817153940499972 0  -0.05907837294415778 -0.08437266056176612 0  -0.05534185965972289 -0.08686931891872721 0  -0.04459586749278641 -0.0700014900024695 0  -0.04671280899869071 -0.06860694917755664 0  -0.04558719914330057 -0.06695376967930226 0  -0.03519006584975783 -0.0729565573851296 0  -0.03605895636456666 -0.07475795386377478 0  -0.03832513489850786 -0.07362189915379239 0  -0.04756010716320853 -0.09136211581735681 0  -0.04352968095929209 -0.09334970206477491 0  -0.0394163935336043 -0.0951595918486625 0  -0.0317627248863025 -0.07668200119843678 0  -0.03408966476691865 -0.07567624961689834 0  -0.03326822706169169 -0.07385272552974416 0  -0.02198667643907108 -0.07795887415274541 0  -0.02252955733880123 -0.07988378462565271 0  -0.02495858135885472 -0.
[...]
<PointData  Vectors="f_191"> 
<DataArray  type="Float64"  Name="f_191"  NumberOfComponents="3" format="ascii">1.2318827923445423e-01 -3.6045426914636125e-01 0.0000000000000000e+00  -7.8515793846383949e-02 -1.4433592874648155e-01 0.0000000000000000e+00  -4.3826294022460494e-01 -3.5729453645930520e-01 0.0000000000000000e+00  9.6486840481288860e-02 -4.8882791829432379e-02 0.0000000000000000e+00  -6.7489327430016477e-01 1.0477924401651514e-01 0.0000000000000000e+00  -9.8320178716569868e-04 4.9873583834603363e-03 0.0000000000000000e+00  1.3095423576777444e-02 4.4317354453493156e-03 0.0000000000000000e+00  -1.0866293245244510e-01 -5.9570093916296842e-02 0.0000000000000000e+00  -2.3057491427470370e-01 -4.4517719260956051e-01 0.0000000000000000e+00  1.0962296967786909e-01 -4.4441390418099408e-01 0.0000000000000000e+00  4.0524650788175964e-01 -3.0321256569428179e-01 0.0000000000000000e+00  1.3406576103428927e-01 2.0438928246986521e-03 0.0000000000000000e+00  -2.2949543464672343e-03 8.9394588203861147e-04 0.0000000000000000e+00  -2.8729634140165772e-03 5.1125783106235438e-03 0.0000000000000000e+00  5.2954012986579613e-01 4.3586220513660429e-01 0.0000000000000000e+00  -6.7797846151416333e-02 -1.6624212682866527e-01 0.0000000000000000e+00  4.8364192150352353e-01 -9.1243801773737199e-02 0.0000000000000000e+00  1.4920538084297144e-01 -7.3998822129397776e-02 0.0000000000000000e+00  2.8297381764934772e-02 -2.8775314112225653e-01 0.0000000000000000e+00  5.9900848008128404e-01 -6.4623755623079135e-02 0.0000000000000000e+00  4.9649944639640242e-01 5.4999717086663036e-01 0.0000000000000000e+00  -7.5245654375120374e-02 -3.0583564875456874e-02 0.0000000000000000e+00  4.4857124053986880e-01 5.6576432101827401e-01 0.0000000000000000e+00  7.1421102477329068e-01 1.0540232674359760e-01 0.0000000000000000e+00  -6.4066736874978839e-02 -4.9669998721727324e-02 0.0000000000000000e+00  7.2393341994153204e-01 1.5388011076997665e-01 0.0000000000000000e+00  2.3373027952262029e-01 5.3074879087552418e-01 0.0000000000000000e+00  -2.3917462252867658e-01 2.2602524579908093e-01 0.0000000000000000e+00  -8.3641951939447887e-03 1.7578527051748868e-01 0.0000000000000000e+00  1.6266719925468043e-01 4.6432247353062367e-01 0.0000000000000000e+00  -1.7784874099434592e-01 2.4470115987149096e-02 0.0000000000000000e+00  6.4233150741355327e-01 2.4045677903282839e-01 0.0000000000000000e+00  3.5361848076926575e-03 -4.7600936084733394e-03 0.0000000000000000e+00  -9.0761303642056361e-03 -1.0293104205439029e-02 0.0000000000000000e+00  6.3932728129084584e-02 1.0552443016397997e-01 0.0000000000000000e+00  -4.5047326269961656e-02 4.7917956176996129e-01 0.0000000000000000e+00  -3.7443755172796628e-01 3.8335068850544168e-01 0.0000000000000000e+00  -5.0588021749974665e-01 4.0966705314148970e-02 0.0000000000000000e+00  -1.1492710013403656e-01 -6.8860997966333382e-02 0.0000000000000000e+00  2.5338452351101248e-03 3.3327894494605749e-04 0.0000000000000000e+00  3.4548558201150290e-03 -2.1449578313593115e-03 0.0000000000000000e+00  -2.4078867546272861e-01 -6.4228408672121262e-01 0.0000000000000000e+00  -2.4361949167917903e-02 1.7787561643847150e-01 0.0000000000000000e+00  -4.6454155710812933e-01 -1.6291828143009715e-01 0.0000000000000000e+00  -1.7700846173542326e-01 9.4010562833117609e-03 0.0000000000000000e+00  -2.1420854596349434e-01 2.2734695681298867e-01 0.0000000000000000e+00  -5.3297479473144271e-01 -2.2615767676582713e-01 0.0000000000000000e+00  -1.5389781916854908e-01 -7.2393390725053952e-01 0.0000000000000000e+00  4.9682980684242116e-02 6.4066410815037667e-02 0.0000000000000000e+00  -1.0544581220578415e-01 -7.1424536833165364e-01 0.0000000000000000e+00  -5.6578078082693006e-01 -4.4851320555705820e-01 0.0000000000000000e+00  3.0582650136487935e-02 7.5239977003739925e-02 0.0000000000000000e+00  -5.4999102437409042e-01 -4.9650523835827765e-01 0.0000000000000000e+00  6.5593707232364559e-02 -5.9893144951102117e-01 0.0000000000000000e+00  2.8813708499182566e-01 -2.8292070219064536e-02 0.0000000000000000e+00  7.4213467649282924e-02 -1.4914303372034657e-01 0.0000000000000000e+00  9.1255864299847306e-02 -4.8363059829736915e-01 0.0000000000000000e+00  1.6622461279310424e-01 6.7771326215001204e-02 0.0000000000000000e+00  -4.3587879677261893e-01 -5.2944914791031294e-01 0.0000000000000000e+00  -4.2404631896027370e-03 2.1787134592887209e-03 0.0000000000000000e+00  -9.4918983756694128e-04 2.3807097080486817e-03 0.0000000000000000e+00  -2.0658665865056452e-03 -1.3409604687642299e-01 0.0000000000000000e+00  2.9764896707322219e-01 -4.0476351688510870e-01 0.0000000000000000e+00  4.5130815833570997e-01 -1.0961391899191474e-01 0.0000000000000000e+00  4.4646905630043671e-01 2.2789131897026227e-01 0.0000000000000000e+00  5.9544625668726932e-02 1.0866583092791891e-01 0.0000000000000000e+00  -4.3226001663271823e-03 -1.3042851769677895e-02 0.0000000000000000e+00  -6.0437391254403363e-03 7.7340420572638915e-04 0.0000000000000000e+00  -1.0477531418767679e-01 6.7491817791057773e-01 0.0000000000000000e+00  4.8888433535950467e-02 -9.6381728302625577e-02 0.0000000000000000e+00  3.5734040109334742e-01 4.3816626003368503e-01 0.0000000000000000e+00  1.5510884973801373e-01 8.6348487214896158e-02 0.0000000000000000e+00  2.2951202464798948e-01 -9.2085603891523926e-02 0.0000000000000000e+00  3.3093976183654911e-01 4.8816383686505965e-01 0.0000000000000000e+00  -2.0747882120842967e-01 6.1591545766180078e-01 0.0000000000000000e+00  -5.2731532598487521e-02 -1.2973012431864925e-01 0.0000000000000000e+00  -2.6084260237435919e-01 6.7220017191239456e-01 0.0000000000000000e+00  2.6081729877595150e-01 6.7226935482868377e-01 0.0000000000000000e+00  5.2769446759431141e-02 -1.2989241190475057e-01 0.0000000000000000e+00  2.0728853550155021e-01 6.1689136967017832e-01 0.0000000000000000e+00  -3.3122373845059633e-01 4.9241783002368961e-01 0.0000000000000000e+00  -3.6305009941407473e-01 -1.1445873456184823e-01 0.0000000000000000e+00  -1.4995772519349224e-01 8.4669631205178328e-02 0.0000000000000000e+00  -3.5731158125427698e-01 4.3817183307158625e-01 0.0000000000000000e+00  -4.8897912571134239e-02 -9.6400916316197113e-02 0.0000000000000000e+00  1.0476858894579034e-01 6.7488261855465237e-01 0.0000000000000000e+00  4.9820095840039276e-03 9.8529794116457813e-04 0.0000000000000000e+00  4.4295326705193171e-03 -1.3097262156941201e-02 0.0000000000000000e+00  -5.9553448393229867e-02 1.0867827280664362e-01 0.0000000000000000e+00  -4.4561207684676346e-01 2.3128252466492677e-01 0.0000000000000000e+00  -4.4430395154499164e-01 -1.0970472676522393e-01 0.0000000000000000e+00  -3.0323209428240450e-01 -4.0517808070894479e-01 0.0000000000000000e+00  2.0423889450908862e-03 -1.3406353398631954e-01 0.0000000000000000e+00  8.9547537976808131e-04 2.2960094319995684e-03 0.0000000000000000e+00  5.1013041292601773e-03 2.8723136166868804e-03 0.0000000000000000e+00  4.3584331668806847e-01 -5.2953194810509285e-01 0.0000000000000000e+00  -1.6623828331889970e-01 6.7785024436349650e-02 0.0000000000000000e+00  -9.1234780239715429e-02 -4.8365647051251381e-01 0.0000000000000000e+00  -7.3981346751964244e-02 -1.4890803217066259e-01 0.0000000000000000e+00  -2.8771916690062332e-01 -2.9309186018278342e-02 0.0000000000000000e+00  -6.5637708342574486e-02 -5.9842098807440514e-01 0.0000000000000000e+00  5.4970160811540714e-01 -4.9548663478458743e-01 0.0000000000000000e+00  -3.0554686064844808e-02 7.5119176171629456e-02 0.0000000000000000e+00  5.6578952998573362e-01 -4.4848331288327847e-01 0.0000000000000000e+00  1.0540845574528961e-01 -7.1432087956866075e-01 0.0000000000000000e+00  -4.9760133221250898e-02 6.4162613154989348e-02 0.0000000000000000e+00  1.5460915348975215e-01 -7.2468153925650369e-01 0.0000000000000000e+00  5.3235736945297862e-01 -2.3512222469491681e-01 0.0000000000000000e+00  2.2595985990801495e-01 2.3962865735496730e-01 0.0000000000000000e+00  1.7590108880218366e-01 8.2779483642833156e-03 0.0000000000000000e+00  4.6432465281571267e-01 -1.6265635951675794e-01 0.0000000000000000e+00  2.4418275801286627e-02 1.7786732487058821e-01 0.0000000000000000e+00  2.4063279251734940e-01 -6.4241957021531348e-01 0.0000000000000000e+00  -3.0284773191334500e-03 -2.6389311618991666e-03 0.0000000000000000e+00  -1.0469651486721607e-02 8.9793829442966835e-03 0.0000000000000000e+00  1.0551624996938699e-01 -6.3966375499079617e-02 0.0000000000000000e+00  4.7918492949752056e-01 4.5026093421476662e-02 0.0000000000000000e+00  3.8316585608008558e-01 3.7426542325948703e-01 0.0000000000000000e+00  4.1222583588343201e-02 5.0568541821896462e-01 0.0000000000000000e+00  -6.8493670079821295e-02 1.1467192070949048e-01 0.0000000000000000e+00  3.0446550358206826e-04 -2.4265058464582878e-03 0.0000000000000000e+00  -2.6462674726931180e-03 -4.8366192877834988e-03 0.0000000000000000e+00  -6.4233160830530445e-01 2.4071263568272785e-01 0.0000000000000000e+00  1.7793635330484686e-01 2.4399094079258585e-02 0.0000000000000000e+00  -1.6322437189149452e-01 4.6454798306919620e-01 0.0000000000000000e+00  1.0876992063852566e-02 1.6829251109145735e-01 0.0000000000000000e+00  2.3378856936659637e-01 2.0697568045326872e-01 0.0000000000000000e+00  -2.4802785230652155e-01 5.6924997985832559e-01 0.0000000000000000e+00  -7.2298787108340479e-01 1.5345667876623270e-01 0.0000000000000000e+00  6.3827265555549281e-02 -4.9612293036877475e-02 0.0000000000000000e+00  -7.1414425845767626e-01 1.0546273703445780e-01 0.0000000000000000e+00  -4.5186416951918312e-01 5.6200681086900905e-01 0.0000000000000000e+00  1.3898031241276820e-01 -1.9371646868129439e-02 0.0000000000000000e+00  -4.3173498256398662e-01 4.8846345938583247e-01 0.0000000000000000e+00  -6.3983966655835189e-01 -6.4339962575188869e-02 0.0000000000000000e+00  -1.7497080820800030e-02 -2.9018274845651443e-01 0.0000000000000000e+00  -1.3955947397413312e-01 -7.2263222666491156e-02 0.0000000000000000e+00  -5.5842998806115485e-01 -9.0230293049676960e-02 0.0000000000000000e+00  5.9114442361240249e-02 -9.0630975346646339e-02 0.0000000000000000e+00  -5.3212801072913252e-01 4.2803049523052838e-01 0.0000000000000000e+00  2.1736595184515431e-03 4.3337730229130976e-03 0.0000000000000000e+00  2.4710826539510399e-03 8.7634150223509476e-04 0.0000000000000000e+00  -1.3454979665986000e-01 2.2948316623089896e-03 0.0000000000000000e+00  -4.0441157271872208e-01 -2.9774469034082546e-01 0.0000000000000000e+00  -1.0963132795231534e-01 -4.5131606269840824e-01 0.0000000000000000e+00  2.2754853536786168e-01 -4.4636630686799361e-01 0.0000000000000000e+00  1.0863034327472158e-01 -5.9551144474886325e-02 0.0000000000000000e+00  -1.3032299098512525e-02 4.3193243501872232e-03 0.0000000000000000e+00  7.6971203916071903e-04 6.0451739374409582e-03 0.0000000000000000e+00  6.7493144058902521e-01 1.0477450596413890e-01 0.0000000000000000e+00  -9.6465078938121868e-02 -4.8873151583571459e-02 0.0000000000000000e+00  4.3826193752379994e-01 -3.5732416130827432e-01 0.0000000000000000e+00  8.0150619783245253e-02 -1.4790799671828386e-01 0.0000000000000000e+00  -1.0092764243357250e-01 -2.2741502439998035e-01 0.0000000000000000e+00  5.2169934879934277e-01 -3.4667094910611274e-01 0.0000000000000000e+00  6.1614390258828178e-01 2.0752395757016226e-01 0.0000000000000000e+00  -1.2977890955568555e-01 5.2722641389043062e-02 0.0000000000000000e+00  6.7222557015588569e-01 2.6084683096300826e-01 0.0000000000000000e+00  6.7230107799718442e-01 -2.6082148977688135e-01 0.0000000000000000e+00  -1.2994275878951000e-01 -5.2758515903876237e-02 0.0000000000000000e+00  6.1710059727070876e-01 -2.0733828899188186e-01 0.0000000000000000e+00  5.2878494053211256e-01 3.4783328632882643e-01 0.0000000000000000e+00  -1.2353970237119627e-01 3.6059116565890664e-01 0.0000000000000000e+00  7.8018539418568608e-02 1.4391058544687232e-01 0.0000000000000000e+00  4.3848197351505619e-01 3.5723156255988919e-01 0.0000000000000000e+00  -9.6494213981380375e-02 4.8898101872564749e-02 0.0000000000000000e+00  6.7494268485981290e-01 -1.0475273134958447e-01 0.0000000000000000e+00  7.8187262116352217e-04 -6.1657563913011604e-03 0.0000000000000000e+00  -1.2968452986164244e-02 -4.2781781310951665e-03 0.0000000000000000e+00  1.0821514188134826e-01 5.9445174221174492e-02 0.0000000000000000e+00  2.1318203869926947e-01 4.2085133398908520e-01 0.0000000000000000e+00  -9.5371868943176757e-02 4.4723325202413572e-01 0.0000000000000000e+00  -4.3093344151721630e-01 3.1700603301293262e-01 0.0000000000000000e+00  -1.3404854967656860e-01 -2.0176851821339975e-03 0.0000000000000000e+00  2.3909334934521190e-03 -9.4936439477145507e-04 0.0000000000000000e+00  2.2237627067996325e-03 -4.3483598625947374e-03 0.0000000000000000e+00  -5.2953005291730526e-01 -4.3578012460572685e-01 0.0000000000000000e+00  6.7788894856052259e-02 1.6621799570119222e-01 0.0000000000000000e+00  -4.8371019518344538e-01 9.1198376807041334e-02 0.0000000000000000e+00  -1.5010185946449556e-01 7.4030266199229380e-02 0.0000000000000000e+00  -2.8264306120496904e-02 2.8775010708153392e-01 0.0000000000000000e+00  -5.9905441596044651e-01 6.4619421376746575e-02 0.0000000000000000e+00  -4.9547823786309186e-01 -5.4972753380307227e-01 0.0000000000000000e+00  7.5117027302723391e-02 3.0556111237488134e-02 0.0000000000000000e+00  -4.4849344242731687e-01 -5.6578502295243860e-01 0.0000000000000000e+00  -7.1432355332844089e-01 -1.0541250855204946e-01 0.0000000000000000e+00  6.4162224803822526e-02 4.9769739615736622e-02 0.0000000000000000e+00  -7.2468009300882197e-01 -1.5463766878930313e-01 0.0000000000000000e+00  -2.3372964285137365e-01 -5.3074516723478549e-01 0.0000000000000000e+00  2.3916878866691541e-01 -2.2602183630690703e-01 0.0000000000000000e+00  8.3550007512120609e-03 -1.7577592106718115e-01 0.0000000000000000e+00  -1.6265624200460665e-01 -4.6432215891593298e-01 0.0000000000000000e+00  1.7786587576179513e-01 -2.4417426895334979e-02 0.0000000000000000e+00  -6.4242198207233336e-01 -2.4062070341635977e-01 0.0000000000000000e+00  -2.6390514709246074e-03 3.0251987419542474e-03 0.0000000000000000e+00  8.9748861023956072e-03 1.0468354396050084e-02 0.0000000000000000e+00  -6.3970924728719555e-02 -1.0552025503676754e-01 0.0000000000000000e+00  4.5041229115700888e-02 -4.7915683598919012e-01 0.0000000000000000e+00  3.7425693148967049e-01 -3.8317032807410306e-01 0.0000000000000000e+00  5.0591666712780392e-01 -4.1008946662351560e-02 0.0000000000000000e+00  1.1494041201136983e-01 6.8802873921186503e-02 0.0000000000000000e+00  -2.4653261990389467e-03 -3.4985714502426269e-04 0.0000000000000000e+00  -4.8098470279483883e-03 2.6648124825000511e-03 0.0000000000000000e+00  2.4071949814492438e-01 6.4229989886700478e-01 0.0000000000000000e+00  2.4404486802238827e-02 -1.7787520016516639e-01 0.0000000000000000e+00  4.6451388934495058e-01 1.6289413165987768e-01 0.0000000000000000e+00  1.7712395332911832e-01 -9.2265535963657677e-03 0.0000000000000000e+00  2.1404924521984509e-01 -2.2771044833174200e-01 0.0000000000000000e+00  5.3507575885449288e-01 2.2872386605164569e-01 0.0000000000000000e+00  1.5353375755624082e-01 7.2313884891089997e-01 0.0000000000000000e+00  -4.9623497172507657e-02 -6.3893667501924031e-02 0.0000000000000000e+00  1.0546772067334406e-01 7.1415583970086494e-01 0.0000000000000000e+00  5.6199720565510669e-01 4.5185733741979606e-01 0.0000000000000000e+00  -1.9363372354121115e-02 -1.3896242523398453e-01 0.0000000000000000e+00  4.8839958256072735e-01 4.3163357480533210e-01 0.0000000000000000e+00  -6.6458206479192566e-02 6.3822517566848747e-01 0.0000000000000000e+00  -2.9008053021529695e-01 1.8537070614512582e-02 0.0000000000000000e+00  -7.2094497619211245e-02 1.3948816997985161e-01 0.0000000000000000e+00  -9.0306708870243516e-02 5.5817417528341284e-01 0.0000000000000000e+00  -9.0630830701337040e-02 -5.9065878235487403e-02 0.0000000000000000e+00  4.2806947636310744e-01 5.3212106851830365e-01 0.0000000000000000e+00  5.4946213331882425e-03 -2.2929590261558659e-03 0.0000000000000000e+00  -2.7582351232086915e-03 -1.3447974542991575e-02 0.0000000000000000e+00  2.7382406439173763e-03 1.2380769111471572e-01 0.0000000000000000e+00  -2.9808714152435223e-01 4.0515105593310857e-01 0.0000000000000000e+00  -4.5156121991640363e-01 1.1002556774154246e-01 0.0000000000000000e+00  -4.4685966155615769e-01 -2.2830621959866018e-01 0.0000000000000000e+00  -6.5137081589949325e-02 -1.1668190287882621e-01 0.0000000000000000e+00  1.9739598675853377e-03 1.5335615281198089e-03 0.0000000000000000e+00  4.8146498576488702e-03 -2.1154520922044364e-04 0.0000000000000000e+00  1.1291933426162576e-01 -6.7654761586862278e-01 0.0000000000000000e+00  -1.1005191581706526e-01 1.4181881480415379e-01 0.0000000000000000e+00  -3.2086499398754414e-01 -3.7348215882149921e-01 0.0000000000000000e+00  -1.5431918276315360e-01 -8.6405295870938592e-02 0.0000000000000000e+00  -2.2950197061104152e-01 9.1973849762478507e-02 0.0000000000000000e+00  -3.3096118313057055e-01 -4.8847895597881480e-01 0.0000000000000000e+00  2.2852305328924064e-01 -7.0297112661011696e-01 0.0000000000000000e+00  1.1082730464321254e-02 8.0144294545198516e-02 0.0000000000000000e+00  2.6580637404545249e-01 -6.7119886484004421e-01 0.0000000000000000e+00  -2.6088557535720025e-01 -6.7233290450160133e-01 0.0000000000000000e+00  -5.2717781122263545e-02 1.3001468252628326e-01 0.0000000000000000e+00  -2.0736947002457706e-01 -6.1778322550730858e-01 0.0000000000000000e+00  3.3125752180777873e-01 -4.9252349005944851e-01 0.0000000000000000e+00  3.6310359060968372e-01 1.1443567179365328e-01 0.0000000000000000e+00  1.4953922912790055e-01 -8.3976080900484890e-02 0.0000000000000000e+00  3.5725533037906831e-01 -4.3837904655258830e-01 0.0000000000000000e+00  4.8909775095838701e-02 9.6389169164588340e-02 0.0000000000000000e+00  -1.0479564681764290e-01 -6.7489166876321527e-01 0.0000000000000000e+00  -4.9989358821376515e-03 -9.4571018777012150e-04 0.0000000000000000e+00  -4.4049470004097636e-03 1.3013975375456279e-02 0.0000000000000000e+00  5.9427193700228080e-02 -1.0824665900158457e-01 0.0000000000000000e+00  4.2131705248136397e-01 -2.1395079669792402e-01 0.0000000000000000e+00  4.4745947577428491e-01 9.5820245597342493e-02 0.0000000000000000e+00  3.1754351673883674e-01 4.3138565689840541e-01 0.0000000000000000e+00  -1.9772499170600997e-03 1.3400878337461819e-01 0.0000000000000000e+00  -9.1531395509246048e-04 -2.3095639230333569e-03 0.0000000000000000e+00  -5.0972093976634604e-03 -2.8716408962676130e-03 0.0000000000000000e+00  -4.3585031565959642e-01 5.2953086459339627e-01 0.0000000000000000e+00  1.6625083410032715e-01 -6.7786579317089840e-02 0.0000000000000000e+00  9.1136064225456240e-02 4.8361304391236232e-01 0.0000000000000000e+00  7.1794666419159964e-02 1.4041118973844677e-01 0.0000000000000000e+00  2.8970860615847127e-01 1.8533965677377823e-02 0.0000000000000000e+00  6.5425647988472224e-02 6.3834736154719729e-01 0.0000000000000000e+00  -5.4933145698214725e-01 4.9555967399305267e-01 0.0000000000000000e+00  3.0389214335744676e-02 -7.5033641916404645e-02 0.0000000000000000e+00  -5.6569664992700897e-01 4.4851908307068394e-01 0.0000000000000000e+00  -1.1014782460631435e-01 7.1265402109437592e-01 0.0000000000000000e+00  1.1051719039939401e-01 -8.6155739545872856e-02 0.0000000000000000e+00  -1.2867144055006594e-01 6.3809494070306427e-01 0.0000000000000000e+00  -5.3292051445213795e-01 2.3646241822871392e-01 0.0000000000000000e+00  -2.2590690693793247e-01 -2.3965368853915348e-01 0.0000000000000000e+00  -1.7595545379887351e-01 -8.2950323181090538e-03 0.0000000000000000e+00  -5.2856541870542939e-01 2.0113712525980451e-01 0.0000000000000000e+00  5.8448599304359704e-03 -1.0801446356897258e-01 0.0000000000000000e+00  -2.4684961691728419e-01 6.3697711597514250e-01 0.0000000000000000e+00  3.1038484532767948e-03 2.7002632524514877e-03 0.0000000000000000e+00  1.0416294344806440e-02 -9.0228479562352165e-03 0.0000000000000000e+00  -1.0552233779283438e-01 6.4115950436768890e-02 0.0000000000000000e+00  -4.7913991676052864e-01 -4.5068647678887054e-02 0.0000000000000000e+00  -3.8319787364743535e-01 -3.7425828100699282e-01 0.0000000000000000e+00  -4.10156165