<?xml version="1.0"?>
<VTKFile type="UnstructuredGrid"  version="0.1"  >
<UnstructuredGrid>
<Piece  NumberOfPoints="3091" NumberOfCells="6066">
<Points>
<DataArray  type="Float64"  NumberOfComponents="3"  format="ascii">0.1026080539034498 0.008977041503008791 0  0.1021188207215025 0.01344419779866531 0  0.08228992349402627 0.01083367395426428 0  0.08258238701482568 0.008315609113802332 0  0.08059244997832385 0.00811523299057818 0  0.07850770368624711 0.01993841673534844 0  0.08044616550566062 0.02043072332140642 0  0.08103256859095448 0.01796448795686254 0  0.1005584887333531 0.02229328023562459 0  0.09949036010777403 0.02665836164555964 0  0.09823284592706737 0.03097269734894013 0  0.07915850691210284 0.02495858135885467 0  0.07988378462565272 0.02252955733880117 0  0.07795887415274544 0.02198667643907102 0  0.07385272552974417 0.03326822706169166 0  0.07567624961689835 0.03408966476691861 0  0.07668200119843681 0.03176272488630245 0  0.09515959184866253 0.03941639353360425 0  0.09334970206477494 0.04352968095929204 0  0.09136211581735683 0.04756010716320849 0  0.0736218991537924 0.03832513489850781 0  0.07475795386377479 0.03605895636456662 0  0.07295655738512961 0.03519006584975778 0  0.06695376967930228 0.04558719914330055 0  0.06860694917755666 0.04671280899869069 0  0.07000149000246952 0.04459586749278639 0  0.08686931891872722 0.05534185965972286 0  0.08437266056176615 0.05907837294415774 0  0.08171539404999721 0.06270242718789822 0  0.06584832724417253 0.05052719860772381 0  0.06736064050309602 0.04849272224790706 0  0.065737492539166 0.04732422291663219 0  0.058020457417397 0.05652102724717609 0  0.05945306130424632 0.05791660816685945 0  0.0611940189552403 0.0560739872320998 0  0.07593956569144278 0.069585791384413 0  0.0728319984622144 0.07283199846221439 0  0.06958579138441301 0.07593956569144276 0  0.05607398723209981 0.06119401895524029 0  0.05791660816685946 0.0594530613042463 0  0.0565210272471761 0.05802045741739699 0  0.0473242229166322 0.06573749253916598 0  0.04849272224790706 0.06736064050309601 0  0.05052719860772382 0.06584832724417251 0  0.06270242718789823 0.08171539404999721 0  0.05907837294415775 0.08437266056176614 0  0.05534185965972286 0.08686931891872721 0  0.04459586749278639 0.07000149000246951 0  0.0467128089986907 0.06860694917755665 0  0.04558719914330056 0.06695376967930228 0  0.03519006584975779 0.07295655738512961 0  0.03605895636456662 0.07475795386377479 0  0.03832513489850781 0.0736218991537924 0  0.04756010716320849 0.09136211581735683 0  0.04352968095929206 0.09334970206477493 0  0.03941639353360425 0.09515959184866253 0  0.03176272488630246 0.07668200119843681 0  0.03408966476691862 0.07567624961689835 0  0.03326822706169167 0.07385272552974417 0  0.02198667643907102 0.07795887415274544 0  0.02252955733880117 0.07988378462565272 0  0.02495858135885468 0.07915850691210283 0  0.03097269734894014 0.09823284592706735 0  0.02665836164555966 0.09949036010777403 0  0.0222932802356246 0.1005584887333531 0  0.01796448795686254 0.08103256859095448 0  0.02043072332140643 0.08044616550566062 0  0.01993841673534845 0.07850770368624711 0  0.008115232990578182 0.08059244997832385 0  0.008315609113802334 0.08258238701482568 0  0.01083367395426429 0.08228992349402627 0  0.01344419779866533 0.1021188207215025 0  0.00897704150300881 0.1026080539034498 0  0.004492796898629609 0.1029019668229313 0  0.003620409151322889 0.0829210023912942 0  0.006151004686218146 0.08277176536325732 0  0.006002787705827346 0.08077726499305835 0  -0.006002787705827337 0.08077726499305835 0  -0.006151004686218136 0.08277176536325732 0  -0.003620409151322879 0.0829210023912942 0  -0.004492796898629596 0.1029019668229313 0  -0.008977041503008775 0.1026080539034498 0  -0.01344419779866531 0.1021188207215025 0  -0.01083367395426428 0.08228992349402627 0  -0.008315609113802325 0.08258238701482568 0  -0.008115232990578173 0.08059244997832385 0  -0.01993841673534844 0.07850770368624711 0  -0.02043072332140642 0.08044616550566062 0  -0.01796448795686253 0.08103256859095448 0  -0.02229328023562459 0.1005584887333531 0  -0.02665836164555962 0.09949036010777403 0  -0.03097269734894013 0.09823284592706737 0  -0.02495858135885468 0.07915850691210284 0  -0.02252955733880116 0.07988378462565272 0  -0.02198667643907101 0.07795887415274544 0  -0.03326822706169166 0.07385272552974417 0  -0.03408966476691862 0.07567624961689835 0  -0.03176272488630245 0.07668200119843681 0  -0.03941639353360424 0.09515959184866253 0  -0.04352968095929203 0.09334970206477496 0  -0.04756010716320848 0.09136211581735684 0  -0.03832513489850781 0.07362189915379241 0  -0.03605895636456662 0.07475795386377479 0  -0.03519006584975778 0.07295655738512961 0  -0.04558719914330055 0.06695376967930228 0  -0.04671280899869069 0.06860694917755666 0  -0.04459586749278639 0.07000149000246951 0  -0.05534185965972286 0.08686931891872721 0  -0.05907837294415771 0.08437266056176618 0  -0.06270242718789819 0.08171539404999724 0  -0.05052719860772379 0.06584832724417254 0  -0.04849272224790704 0.06736064050309604 0  -0.04732422291663217 0.06573749253916601 0  -0.05652102724717608 0.05802045741739702 0  -0.05791660816685944 0.05945306130424632 0  -0.0560739872320998 0.0611940189552403 0  -0.069585791384413 0.07593956569144278 0  -0.07283199846221439 0.0728319984622144 0  -0.07593956569144276 0.06958579138441301 0  -0.06119401895524029 0.05607398723209981 0  -0.0594530613042463 0.05791660816685946 0  -0.058020457417397 0.0565210272471761 0  -0.065737492539166 0.04732422291663219 0  -0.06736064050309602 0.04849272224790706 0  -0.0658483272441725 0.05052719860772384 0  -0.0817153940499972 0.06270242718789824 0  -0.08437266056176614 0.05907837294415778 0  -0.08686931891872721 0.05534185965972288 0  -0.0700014900024695 0.04459586749278641 0  -0.06860694917755665 0.04671280899869071 0  -0.06695376967930228 0.04558719914330057 0  -0.07295655738512961 0.03519006584975779 0  -0.07475795386377479 0.03605895636456663 0  -0.07362189915379239 0.03832513489850785 0  -0.09136211581735681 0.04756010716320853 0  -0.09334970206477494 0.04352968095929204 0  -0.09515959184866253 0.03941639353360425 0  -0.07668200119843681 0.03176272488630246 0  -0.07567624961689835 0.03408966476691861 0  -0.07385272552974417 0.03326822706169166 0  -0.07795887415274544 0.02198667643907101 0  -0.07988378462565272 0.02252955733880116 0  -0.07915850691210286 0.02495858135885465 0  -0.09823284592706738 0.03097269734894011 0  -0.09949036010777403 0.02665836164555966 0  -0.1005584887333531 0.02229328023562463 0  -0.08103256859095447 0.01796448795686257 0  -0.08044616550566062 0.02043072332140644 0  -0.07850770368624711 0.01993841673534845 0  -0.08059244997832385 0.008115232990578187 0  -0.08258238701482568 0.008315609113802341 0  -0.08228992349402627 0.01083367395426428 0  -0.1021188207215025 0.01344419779866531 0  -0.1026080539034498 0.008977041503008839 0  -0.1029019668229313 0.004492796898629661 0  -0.0829210023912942 0.003620409151322931 0  -0.08277176536325731 0.006151004686218169 0  -0.08077726499305833 0.00600278770582737 0  -0.08077726499305835 -0.006002787705827315 0  -0.08277176536325732 -0.006151004686218113 0  -0.0829210023912942 -0.003620409151322874 0  -0.1029019668229313 -0.00449279689862959 0  -0.1026080539034498 -0.008977041503008768 0  -0.1021188207215025 -0.01344419779866529 0  -0.08228992349402628 -0.01083367395426426 0  -0.08258238701482568 -0.00831560911380232 0  -0.08059244997832385 -0.008115232990578166 0  -0.07850770368624711 -0.01993841673534843 0  -0.08044616550566062 -0.02043072332140642 0  -0.08103256859095448 -0.01796448795686251 0  -0.1005584887333531 -0.02229328023562456 0  -0.09949036010777404 -0.02665836164555959 0  -0.09823284592706738 -0.03097269734894008 0  -0.07915850691210286 -0.02495858135885463 0  -0.07988378462565274 -0.02252955733880114 0  -0.07795887415274544 -0.02198667643907099 0  -0.07385272552974419 -0.03326822706169164 0  -0.07567624961689837 -0.0340896647669186 0  -0.07668200119843682 -0.03176272488630241 0  -0.09515959184866256 -0.03941639353360419 0  -0.09334970206477496 -0.04352968095929202 0  -0.09136211581735684 -0.04756010716320847 0  -0.07362189915379241 -0.0383251348985078 0  -0.0747579538637748 -0.03605895636456661 0  -0.07295655738512963 -0.03519006584975778 0  -0.06695376967930228 -0.04558719914330055 0  -0.06860694917755666 -0.04671280899869069 0  -0.07000149000246951 -0.04459586749278639 0  -0.08686931891872721 -0.05534185965972286 0  -0.08437266056176618 -0.05907837294415771 0  -0.08171539404999724 -0.06270242718789819 0  -0.06584832724417254 -0.05052719860772379 0  -0.06736064050309604 -0.04849272224790704 0  -0.06573749253916601 -0.04732422291663217 0  -0.05802045741739702 -0.05652102724717608 0  -0.05945306130424632 -0.05791660816685944 0  -0.0611940189552403 -0.0560739872320998 0  -0.07593956569144278 -0.069585791384413 0  -0.0728319984622144 -0.07283199846221439 0  -0.06958579138441302 -0.07593956569144275 0  -0.05607398723209982 -0.06119401895524029 0  -0.05791660816685946 -0.0594530613042463 0  -0.0565210272471761 -0.05802045741739699 0  -0.04732422291663223 -0.06573749253916598 0  -0.04849272224790709 -0.06736064050309601 0  -0.05052719860772384 -0.0658483272441725 0  -0.06270242718789824 -0.0817153940499972 0  -0.05907837294415778 -0.08437266056176612 0  -0.05534185965972289 -0.08686931891872721 0  -0.04459586749278641 -0.0700014900024695 0  -0.04671280899869071 -0.06860694917755664 0  -0.04558719914330057 -0.06695376967930226 0  -0.03519006584975783 -0.0729565573851296 0  -0.03605895636456666 -0.07475795386377478 0  -0.03832513489850786 -0.07362189915379239 0  -0.04756010716320853 -0.09136211581735681 0  -0.04352968095929209 -0.09334970206477491 0  -0.0394163935336043 -0.0951595918486625 0  -0.0317627248863025 -0.07668200119843678 0  -0.03408966476691865 -0.07567624961689834 0  -0.03326822706169169 -0.07385272552974416 0  -0.02198667643907108 -0.07795887415274541 0  -0.02252955733880123 -0.07988378462565271 0  -0.02495858135885472 -0.
[...]
<CellData  Vectors="f_202"> 
<DataArray  type="Float64"  Name="f_202"  NumberOfComponents="3" format="ascii">2.0746486386489030e-02  -5.7664368166332122e-02 0.0000000000000000e+00  -7.5747820647976511e-03  6.5398163323556833e-03 0.0000000000000000e+00  -1.0793251312831119e-02  -8.8540314597566443e-03 0.0000000000000000e+00  1.3055723483299494e-02  -4.9146606809227986e-03 0.0000000000000000e+00  1.4346834929164899e-02  -6.4831411265391131e-02 0.0000000000000000e+00  2.4113809433022160e-02  6.5773708558874655e-02 0.0000000000000000e+00  -5.7663214539980884e-02  -2.0745953656706066e-02 0.0000000000000000e+00  3.2892584583906334e-03  -9.4328016238287883e-03 0.0000000000000000e+00  -5.3762199519748595e-02  -4.4919302233211313e-02 0.0000000000000000e+00  -5.9190694178960036e-02  1.3096309917139936e-02 0.0000000000000000e+00  4.4917269626716688e-02  -5.3759552606882408e-02 0.0000000000000000e+00  -2.0746526332490193e-02  5.7664595692982740e-02 0.0000000000000000e+00  1.9988922386855713e-02  6.3312539439407484e-02 0.0000000000000000e+00  -1.0852140854737385e-02  -6.0326412355490057e-02 0.0000000000000000e+00  -6.5413138019268765e-03  -7.5610448267177466e-03 0.0000000000000000e+00  -1.3058959518370010e-02  4.9162218197719336e-03 0.0000000000000000e+00  8.8531082649585778e-03  -1.0791478864377625e-02 0.0000000000000000e+00  6.3309081869124234e-02  -1.9987841007092669e-02 0.0000000000000000e+00  7.5598902933502621e-03  -6.5394995015704257e-03 0.0000000000000000e+00  4.9148520609996757e-03  1.3056021354669080e-02 0.0000000000000000e+00  1.3099900729326878e-02  5.9193650960466464e-02 0.0000000000000000e+00  -6.5778456349727010e-02  2.4115774906159234e-02 0.0000000000000000e+00  -1.3095587185894802e-02  -5.9187427003509201e-02 0.0000000000000000e+00  -6.4823427877541029e-02  -1.4345059640368250e-02 0.0000000000000000e+00  -5.7804377235561429e-02  -1.8249206023418032e-02 0.0000000000000000e+00  1.0864512242604436e-02  6.0306426108445388e-02 0.0000000000000000e+00  -4.0939560754241683e-02  -4.4710952667045355e-02 0.0000000000000000e+00  -1.8249869638182849e-02  5.7806477391852330e-02 0.0000000000000000e+00  6.0327476814845300e-02  -1.0852283055822986e-02 0.0000000000000000e+00  -4.4851830529676409e-02  4.8984671480976474e-02 0.0000000000000000e+00  9.8062397398096975e-03  -1.8774444344491700e-03 0.0000000000000000e+00  1.8249826879765060e-02  -5.7806326378065057e-02 0.0000000000000000e+00  -1.2004306840898659e-02  6.9020073418371311e-02 0.0000000000000000e+00  5.9203389326717162e-02  -1.3102063014305342e-02 0.0000000000000000e+00  -2.4093639778703820e-02  -6.5767511513401794e-02 0.0000000000000000e+00  -6.9016191833129084e-02  -1.2003363786560063e-02 0.0000000000000000e+00  5.7805630051556596e-02  1.8249605802122953e-02 0.0000000000000000e+00  1.2002863802791747e-02  -6.9009113977888878e-02 0.0000000000000000e+00  6.9007057053172990e-02  1.2002161832555194e-02 0.0000000000000000e+00  -1.9985839882091704e-02  -6.3312279548782699e-02 0.0000000000000000e+00  5.7663802247026372e-02  2.0746198239249870e-02 0.0000000000000000e+00  -8.8530810632366855e-03  1.0790512342023570e-02 0.0000000000000000e+00  4.4712644756991118e-02  -4.0941113125729761e-02 0.0000000000000000e+00  -6.0329783712461491e-02  1.0852157050046465e-02 0.0000000000000000e+00  2.2713684419841274e-03  -1.3770112708446670e-02 0.0000000000000000e+00  6.5305559700894675e-03  7.5541984725319691e-03 0.0000000000000000e+00  -4.9199660616323446e-03  -1.3064063038797754e-02 0.0000000000000000e+00  -1.4345896452646910e-02  6.4827209652750115e-02 0.0000000000000000e+00  -4.6795061981513383e-02  3.9562477137968302e-02 0.0000000000000000e+00  4.0929231284826541e-02  4.4699680342094004e-02 0.0000000000000000e+00  -4.8978601155612068e-02  -4.4846266003911360e-02 0.0000000000000000e+00  1.3756814903577302e-02  2.2853640823206657e-03 0.0000000000000000e+00  6.5766973256886962e-02  -2.4093474320190853e-02 0.0000000000000000e+00  6.4829306057233832e-02  1.4346369900004171e-02 0.0000000000000000e+00  4.4843993228637129e-02  -4.8976118567463103e-02 0.0000000000000000e+00  5.3750918342944924e-02  4.4910637315558714e-02 0.0000000000000000e+00  -3.2890928622318484e-03  9.4290140162882115e-03 0.0000000000000000e+00  -1.3754699176256543e-02  -2.2854098442838264e-03 0.0000000000000000e+00  -6.3320721689067924e-02  1.9988503120651709e-02 0.0000000000000000e+00  -9.4242724443558239e-03  -3.2889309882936147e-03 0.0000000000000000e+00  4.6789472366876687e-02  -3.9558124975621736e-02 0.0000000000000000e+00  -9.8205454670407186e-03  1.8713478648379573e-03 0.0000000000000000e+00  -3.9564655035203032e-02  -4.6797897744729623e-02 0.0000000000000000e+00  -4.4908792080046785e-02  5.3774516193362043e-02 0.0000000000000000e+00  1.0781243215117661e-02  8.8477793775176491e-03 0.0000000000000000e+00  9.4263716527943457e-03  3.2890219010165123e-03 0.0000000000000000e+00  -2.2851930287455121e-03  1.3759717820211669e-02 0.0000000000000000e+00  4.8970206597488346e-02  4.4838573490756782e-02 0.0000000000000000e+00  -4.4708279928147167e-02  4.0937113497033682e-02 0.0000000000000000e+00  1.8699123700082660e-03  9.8177904568634792e-03 0.0000000000000000e+00  -1.8813363306543476e-03  -9.8128038494893002e-03 0.0000000000000000e+00  3.9553428343449097e-02  4.6783281087298352e-02 0.0000000000000000e+00  7.1752441920534177e-02  -1.1848620708440477e-02 0.0000000000000000e+00  -6.9240616989427989e-02  -1.6553563100359110e-02 0.0000000000000000e+00  1.6591251856069078e-02  -6.9251527443151911e-02 0.0000000000000000e+00  -7.1757558987103218e-02  1.1857181409045868e-02 0.0000000000000000e+00  -5.3720615790836999e-02  1.8087241760844017e-02 0.0000000000000000e+00  4.2374109861849314e-02  2.1757609647428389e-02 0.0000000000000000e+00  -1.8049874284208484e-02  -5.3751779134809524e-02 0.0000000000000000e+00  -4.2381611297782770e-02  -2.1749708976041490e-02 0.0000000000000000e+00  -2.1725210558661424e-02  4.2409544971799044e-02 0.0000000000000000e+00  -3.6215515344938234e-02  1.3564011018902261e-02 0.0000000000000000e+00  -1.9794561819080316e-02  1.6732759484548505e-02 0.0000000000000000e+00  3.6199586186655794e-02  -1.3561456482696084e-02 0.0000000000000000e+00  1.6770052613260311e-02  1.9821276528246008e-02 0.0000000000000000e+00  -2.5350610112288112e-02  6.6797975802595597e-02 0.0000000000000000e+00  1.9647307608823165e-02  6.7595231653453908e-02 0.0000000000000000e+00  -6.6831554253418884e-02  -2.5337218336496312e-02 0.0000000000000000e+00  6.7661434228693265e-02  -1.9642033371340323e-02 0.0000000000000000e+00  6.6815336014987584e-02  2.5335680790893513e-02 0.0000000000000000e+00  2.5353303128565614e-02  -6.6787208194933112e-02 0.0000000000000000e+00  -7.9859100036400316e-03  -8.5238498456185405e-03 0.0000000000000000e+00  8.5229895476647277e-03  -7.9840894026582503e-03 0.0000000000000000e+00  -8.5243533424799369e-03  7.9813183160695692e-03 0.0000000000000000e+00  5.7349838412335132e-02  -1.1551399159784542e-02 0.0000000000000000e+00  2.0503579163715618e-02  6.2099706013683323e-02 0.0000000000000000e+00  1.3295947645643021e-02  -6.4026875201424374e-02 0.0000000000000000e+00  3.3803528100114343e-03  -1.1168045321770376e-02 0.0000000000000000e+00  -5.5429235644236186e-02  -1.8667200886640239e-02 0.0000000000000000e+00  1.1363657484762814e-02  -2.6494707438221420e-03 0.0000000000000000e+00  -1.1548005693747490e-02  -5.7342912036022028e-02 0.0000000000000000e+00  -1.8667851118895976e-02  5.5430894356241503e-02 0.0000000000000000e+00  -1.1368860850014418e-02  2.6501271812676315e-03 0.0000000000000000e+00  -6.4029748822100649e-02  -1.3294175799207187e-02 0.0000000000000000e+00  6.2094721451215154e-02  -2.0499413057342816e-02 0.0000000000000000e+00  1.1551427756030793e-02  5.7337777016601664e-02 0.0000000000000000e+00  2.6486454068798413e-03  1.1366187175928386e-02 0.0000000000000000e+00  4.3543668836851512e-02  -4.8804315674091998e-02 0.0000000000000000e+00  -4.8806849253489590e-02  -4.3545636001323641e-02 0.0000000000000000e+00  -5.7346049716446419e-02  1.1548397242836378e-02 0.0000000000000000e+00  1.8667925761620404e-02  -5.5430680514995466e-02 0.0000000000000000e+00  -1.3294950219673722e-02  6.4033448811912641e-02 0.0000000000000000e+00  -2.0499085440314709e-02  -6.2095824773199373e-02 0.0000000000000000e+00  1.1160108777014994e-02  3.3829898979868432e-03 0.0000000000000000e+00  -3.8678148849877657e-02  -4.3877307453409689e-02 0.0000000000000000e+00  6.4024847649247540e-02  1.3295493996173517e-02 0.0000000000000000e+00  -6.2105023595512773e-02  2.0505431324304709e-02 0.0000000000000000e+00  -4.3874721435961342e-02  3.8675875653117288e-02 0.0000000000000000e+00  -4.3545712747014152e-02  4.8807057803419512e-02 0.0000000000000000e+00  -1.1158089649606580e-02  -3.3827048319502490e-03 0.0000000000000000e+00  -2.6536030207076162e-03  -1.1370957013402117e-02 0.0000000000000000e+00  3.8667159983200868e-02  4.3865092773078825e-02 0.0000000000000000e+00  4.3872763015268268e-02  -3.8676214434914973e-02 0.0000000000000000e+00  5.5430080359713099e-02  1.8667669478359787e-02 0.0000000000000000e+00  -3.3824018307450276e-03  1.1162766842316844e-02 0.0000000000000000e+00  7.9714450255810778e-03  8.5163879337464467e-03 0.0000000000000000e+00  4.8797595272660310e-02  4.3537207000597489e-02 0.0000000000000000e+00  4.7705211690531692e-02  -4.0059602658313979e-03 0.0000000000000000e+00  3.9738673544727366e-03  4.7691110239678550e-02 0.0000000000000000e+00  -3.9611163480297751e-02  2.8200351722779078e-02 0.0000000000000000e+00  -2.8238132981956359e-02  -3.9605331643745245e-02 0.0000000000000000e+00  1.3340515203923178e-02  -5.5836267073192461e-02 0.0000000000000000e+00  -1.3331933807033432e-02  5.5833684554333615e-02 0.0000000000000000e+00  6.7350442442342985e-03  -3.8452710038175776e-02 0.0000000000000000e+00  3.8417422320370327e-02  6.7341022863513320e-03 0.0000000000000000e+00  5.6145338694867014e-02  -4.9563378478492730e-02 0.0000000000000000e+00  4.9529562756400206e-02  5.6140385972766979e-02 0.0000000000000000e+00  2.4371084959400827e-02  8.7469166963618835e-03 0.0000000000000000e+00  -2.4359218577703207e-02  -8.7498186667989801e-03 0.0000000000000000e+00  5.3165171740171539e-02  -5.1593861869182404e-02 0.0000000000000000e+00  1.2618984152913662e-02  7.2149227001296903e-02 0.0000000000000000e+00  6.9611625593198070e-02  1.7264595501560554e-02 0.0000000000000000e+00  -1.7289119795929730e-02  6.9625547030475021e-02 0.0000000000000000e+00  -1.2611282506943296e-02  -7.2143308995639505e-02 0.0000000000000000e+00  1.7567170249593672e-02  5.4096434250927299e-02 0.0000000000000000e+00  2.1337505677773434e-02  -4.2675054426379866e-02 0.0000000000000000e+00  5.4073017337050881e-02  -1.7589482002395782e-02 0.0000000000000000e+00  1.3787838597359886e-02  3.6465183180806396e-02 0.0000000000000000e+00  -1.3779610565958399e-02  -3.6473618415208360e-02 0.0000000000000000e+00  1.9881790462834541e-02  -1.6864539795603373e-02 0.0000000000000000e+00  -1.6889063161881036e-02  -1.9900965561406692e-02 0.0000000000000000e+00  -1.9654360359282613e-02  -6.7608792191558367e-02 0.0000000000000000e+00  -6.7638124003513447e-02  1.9639413996660447e-02 0.0000000000000000e+00  3.5275634609100694e-02  8.2044030819606387e-03 0.0000000000000000e+00  8.1681673129784631e-03  -3.5198268342276878e-02 0.0000000000000000e+00  -3.5264970595042862e-02  -8.2034926548099109e-03 0.0000000000000000e+00  -8.1691422229706323e-03  3.5209301401508311e-02 0.0000000000000000e+00  -1.7659894896209807e-02  2.1941331934840342e-02 0.0000000000000000e+00  -2.1903063701800313e-02  -1.7620342671721793e-02 0.0000000000000000e+00  1.7653711942586407e-02  -2.1935676380737349e-02 0.0000000000000000e+00  2.1911312411747916e-02  1.7623588955007707e-02 0.0000000000000000e+00  3.0586464813422705e-02  2.0998086564899348e-03 0.0000000000000000e+00  2.0776233232441470e-03  -3.0519891217541492e-02 0.0000000000000000e+00  -3.0575971849536965e-02  -2.0991209109591995e-03 0.0000000000000000e+00  -2.0783331195494076e-03  3.0530720632925924e-02 0.0000000000000000e+00  -4.7689557057662660e-02  4.0385575987585669e-03 0.0000000000000000e+00  -3.9873363648555062e-03  -4.7667780202519161e-02 0.0000000000000000e+00  3.9615805031743383e-02  -2.8194164427211572e-02 0.0000000000000000e+00  2.8220168110988937e-02  3.9598967945824806e-02 0.0000000000000000e+00  5.5839778453004335e-02  1.3405809893458968e-02 0.0000000000000000e+00  -5.5835200225446135e-02  -1.3394724342387311e-02 0.0000000000000000e+00  -3.8516247723602924e-02  -6.7691470471260822e-03 0.0000000000000000e+00  -6.7525191489563544e-03  3.8550546006104948e-02 0.0000000000000000e+00  -5.6176366799316001e-02  4.9626530423397382e-02 0.0000000000000000e+00  -4.9558601084272194e-02  -5.6153402075787680e-02 0.0000000000000000e+00  8.7045672864569917e-03  -2.4431956754813931e-02 0.0000000000000000e+00  -8.7112996604418493e-03  2.4435813922899684e-02 0.0000000000000000e+00  -5.1619321520472938e-02  -5.3226676926793261e-02 0.0000000000000000e+00  -5.3191303037406774e-02  5.1616208554462459e-02 0.0000000000000000e+00  5.1621526955149301e-02  5.3239052143104100e-02 0.0000000000000000e+00  -4.0774983228139723e-02  4.1844899408584803e-02 0.0000000000000000e+00  -4.1853173770131716e-02  -4.0738969268257666e-02 0.0000000000000000e+00  4.0782440555533893e-02  -4.1841213693288547e-02 0.0000000000000000e+00  4.1854777407230356e-02  4.0711257214648244e-02 0.0000000000000000e+00  2.9779963327682929e-02  8.2672821585436131e-03 0.0000000000000000e+00  -8.2889243138925817e-03  2.9781125357381488e-02 0.0000000000000000e+00  2.8346191198792749e-03  3.2370523512589865e-02 0.0000000000000000e+00  -2.8282268572099529e-03  -3.2369928853914980e-02 0.0000000000000000e+00  -7.0520679239207042e-03  -3.1645240187496121e-02 0.0000000000000000e+00  -3.1657389346750220e-02  7.0311004426356566e-03 0.0000000000000000e+00  -2.9793413883244146e-02  -8.1612588863962665e-03 0.0000000000000000e+00  8.1968663074631961e-03  -2.9794541227549449e-02 0.0000000000000000e+00  2.6282603196023747e-02  -1.8936070721410504e-02 0.0000000000000000e+00  1.8914552616191922e-02  2.6289641096243224e-02 0.0000000000000000e+00  -4.5398011534187304e-03  -2.1467014927452434e-02 0.0000000000000000e+00  2.1445794639062571e-02  -4.5314053661716942e-03 0.0000000000000000e+00  2.2455103061693137e-02  -2.1691280144320174e-02 0.0000000000000000e+00  1.6617157903403689e-02  1.4112240624197763e-02 0.0000000000000000e+00  -1.6610046719937641e-02  -1.4111852238835933e-02 0.0000000000000000e+00  3.2391043481873258e-02  -2.6805903330997380e-03 0.0000000000000000e+00  -3.2391670222383075e-02  2.6881051499884822e-03 0.0000000000000000e+00  3.1663010866955416e-02  -7.0275213685952508e-03 0.0000000000000000e+00  7.0468274375299952e-03  3.1636851363460089e-02 0.0000000000000000e+00  -2.6309103408764568e-02  1.9073670944459289e-02 0.0000000000000000e+00  -1.9037146541084324e-02  -2.6316838904588087e-02 0.0000000000000000e+00  -2.1504232432895825e-02  4.4753495172039758e-03 0.0000000000000000e+00  4.4954003385486163e-03  2.1533352109040688e-02 0.0000000000000000e+00  2.1712487277068884e-02  2.2601676832402180e-02 0.0000000000000000e+00  -2.1714854760886523e-02  -2.2593985892873956e-02 0.0000000000000000e+00  -2.2570326441221616e-02  2.1722251689088277e-02 0.0000000000000000e+00  -1.4077213805535525e-02  1.6646775427647163e-02 0.0000000000000000e+00  1.4070464684803337e-02  -1.6642942568757556e-02 0.0000000000000000e+00  5.4559728043644916e-03  2.0216268410567190e-02 0.0000000000000000e+00  2.0183153962507430e-02  -5.4342612435057990e-03 0.0000000000000000e+00  -5.4471903078528935e-03  -2.0210697598640998e-02 0.0000000000000000e+00  -2.0172777658624880e-02  5.4325985429414733e-03 0.0000000000000000e+00  9.1443926435898319e-03  -2.3487951715046196e-02 0.0000000000000000e+00  -2.3459573618548935e-02  -9.1177369486723676e-03 0.0000000000000000e+00  -9.1495024230914424e-03  2.3497052372529758e-02 0.0000000000000000e+00  2.3469157437540959e-02  9.1253960447166774e-03 0.0000000000000000e+00  -1.2855575741994927e-02  3.1140509458800789e-02 0.0000000000000000e+00  -3.1154876101658281e-02  -1.2835451794081585e-02 0.0000000000000000e+00  1.2860396103622820e-02  -3.1135812722412618e-02 0.0000000000000000e+00  3.1146506341660638e-02  1.2836664500188468e-02 0.0000000000000000e+00  9.3758679838868274e-03  4.0510775697069415e-03 0.0000000000000000e+00  -9.3776776647152595e-03  -4.0408850761403615e-03 0.0000000000000000e+00  4.0193043281009748e-03  -9.3799932474092421e-03 0.0000000000000000e+00  -4.0097109899979097e-03  9.3819012559626918e-03 0.0000000000000000e+00  -3.9668398442135929e-03  8.5685888693140741e-03 0.0000000000000000e+00  3.9732645451836246e-03  -8.5629236128519342e-03 0.0000000000000000e+00  -8.5897873936455586e-03  -3.9412672746890363e-03 0.0000000000000000e+00  8.5852460350199153e-03  3.9316803926810169e-03 0.0000000000000000e+00  -1.4328248375674141e-02  -2.7080245339458860e-02 0.0000000000000000e+00  -2.7059172319027460e-02  1.4353739109741097e-02 0.0000000000000000e+00  2.7051380811516822e-02  -1.4312908005424719e-02 0.0000000000000000e+00  1.4374347608517239e-02  2.7097073465733132e-02 0.0000000000000000e+00  -1.8269517641294669e-02  -2.7988610440882172e-02 0.0000000000000000e+00  2.7959121463089171e-02  -1.8251467870384896e-02 0.0000000000000000e+00  -2.7951381161279404e-02  1.8252607328492130e-02 0.0000000000000000e+00  1.8277759042348941e-02  2.7990321967814452e-02 0.0000000000000000e+00  -1.7867662882362020e-02  2.1988090262334462e-02 0.0000000000000000e+00  1.7862733253272749e-02  -2.1982716769775732e-02 0.0000000000000000e+00  -2.1952422605778819e-02  -1.7838246905973167e-02 0.0000000000000000e+00  2.1961062550279589e-02  1.7843220368326057e-02 0.0000000000000000e+00  -5.4400230652930294e-02  1.7152385403669538e-02 0.0000000000000000e+00  -5.7188267190226919e-02  8.0807771334247512e-03 0.0000000000000000e+00  2.1096332633265486e-03  -2.2933648402534844e-03 0.0000000000000000e+00  5.1359442937992149e-03  7.4924223455406021e-04 0.0000000000000000e+00  1.2354414357012110e-02  -5.5727418011828296e-02 0.0000000000000000e+00  -1.3973747768771210e-02  -7.8909970028728429e-03 0.0000000000000000e+00  -8.7643609892093391e-04  -2.8682943427198286e-03 0.0000000000000000e+00  2.1634756322684683e-02  -5.3661326754989240e-02 0.0000000000000000e+00  7.7186711599303416e-04  -5.1306417561309365e-03 0.0000000000000000e+00  -6.1676796949400037e-02  -8.6717227944531038e-03 0.0000000000000000e+00  -8.0581920913287159e-03  -5.7191788152776923e-02 0.0000000000000000e+00  3.7867017173047454e-02  -4.8487534022305587e-02 0.0000000000000000e+00  -4.8497346940473932e-02  -3.7874546891210212e-02 0.0000000000000000e+00  -1.7153410959234373e-02  -5.4403483318343535e-02 0.0000000000000000e+00  4.4943993604379985e-02  -3.5176711918807224e-02 0.0000000000000000e+00  8.3231827842531053e-03  1.4082910610823682e-02 0.0000000000000000e+00  -5.1348870608586084e-03  -7.4919607614305501e-04 0.0000000000000000e+00  3.5142003012611292e-02  4.4936261160319749e-02 0.0000000000000000e+00  1.4091182713360769e-02  -8.3284526924609671e-03 0.0000000000000000e+00  1.3965121853848584e-02  7.8865066338424505e-03 0.0000000000000000e+00  4.7341926211213949e-02  1.4926917083292305e-02 0.0000000000000000e+00  -3.3960053386574887e-02  -3.7060986882975655e-02 0.0000000000000000e+00  2.3366996533335255e-02  5.7842554798072154e-02 0.0000000000000000e+00  -3.7053193977446150e-02  3.3952912507164118e-02 0.0000000000000000e+00  5.7849541427850336e-02  -2.3369550817944382e-02 0.0000000000000000e+00  -1.2354036982172186e-02  5.5725741079961227e-02 0.0000000000000000e+00  6.1675939091059694e-02  8.6716098573532893e-03 0.0000000000000000e+00  4.8488644931681375e-02  3.7867869584784025e-02 0.0000000000000000e+00  -7.7183795979197370e-04  5.1299739893987976e-03 0.0000000000000000e+00  -2.8449602876738597e-03  8.8967808805484486e-04 0.0000000000000000e+00  -4.7343357733120373e-02  -1.4927362476593375e-02 0.0000000000000000e+00  1.0739824910727388e-02  4.8444506417702593e-02 0.0000000000000000e+00  -1.4929957201981576