<?xml version="1.0"?>
<VTKFile type="UnstructuredGrid"  version="0.1"  >
<UnstructuredGrid>
<Piece  NumberOfPoints="3091" NumberOfCells="6066">
<Points>
<DataArray  type="Float64"  NumberOfComponents="3"  format="ascii">0.1026080539034498 0.008977041503008791 0  0.1021188207215025 0.01344419779866531 0  0.08228992349402627 0.01083367395426428 0  0.08258238701482568 0.008315609113802332 0  0.08059244997832385 0.00811523299057818 0  0.07850770368624711 0.01993841673534844 0  0.08044616550566062 0.02043072332140642 0  0.08103256859095448 0.01796448795686254 0  0.1005584887333531 0.02229328023562459 0  0.09949036010777403 0.02665836164555964 0  0.09823284592706737 0.03097269734894013 0  0.07915850691210284 0.02495858135885467 0  0.07988378462565272 0.02252955733880117 0  0.07795887415274544 0.02198667643907102 0  0.07385272552974417 0.03326822706169166 0  0.07567624961689835 0.03408966476691861 0  0.07668200119843681 0.03176272488630245 0  0.09515959184866253 0.03941639353360425 0  0.09334970206477494 0.04352968095929204 0  0.09136211581735683 0.04756010716320849 0  0.0736218991537924 0.03832513489850781 0  0.07475795386377479 0.03605895636456662 0  0.07295655738512961 0.03519006584975778 0  0.06695376967930228 0.04558719914330055 0  0.06860694917755666 0.04671280899869069 0  0.07000149000246952 0.04459586749278639 0  0.08686931891872722 0.05534185965972286 0  0.08437266056176615 0.05907837294415774 0  0.08171539404999721 0.06270242718789822 0  0.06584832724417253 0.05052719860772381 0  0.06736064050309602 0.04849272224790706 0  0.065737492539166 0.04732422291663219 0  0.058020457417397 0.05652102724717609 0  0.05945306130424632 0.05791660816685945 0  0.0611940189552403 0.0560739872320998 0  0.07593956569144278 0.069585791384413 0  0.0728319984622144 0.07283199846221439 0  0.06958579138441301 0.07593956569144276 0  0.05607398723209981 0.06119401895524029 0  0.05791660816685946 0.0594530613042463 0  0.0565210272471761 0.05802045741739699 0  0.0473242229166322 0.06573749253916598 0  0.04849272224790706 0.06736064050309601 0  0.05052719860772382 0.06584832724417251 0  0.06270242718789823 0.08171539404999721 0  0.05907837294415775 0.08437266056176614 0  0.05534185965972286 0.08686931891872721 0  0.04459586749278639 0.07000149000246951 0  0.0467128089986907 0.06860694917755665 0  0.04558719914330056 0.06695376967930228 0  0.03519006584975779 0.07295655738512961 0  0.03605895636456662 0.07475795386377479 0  0.03832513489850781 0.0736218991537924 0  0.04756010716320849 0.09136211581735683 0  0.04352968095929206 0.09334970206477493 0  0.03941639353360425 0.09515959184866253 0  0.03176272488630246 0.07668200119843681 0  0.03408966476691862 0.07567624961689835 0  0.03326822706169167 0.07385272552974417 0  0.02198667643907102 0.07795887415274544 0  0.02252955733880117 0.07988378462565272 0  0.02495858135885468 0.07915850691210283 0  0.03097269734894014 0.09823284592706735 0  0.02665836164555966 0.09949036010777403 0  0.0222932802356246 0.1005584887333531 0  0.01796448795686254 0.08103256859095448 0  0.02043072332140643 0.08044616550566062 0  0.01993841673534845 0.07850770368624711 0  0.008115232990578182 0.08059244997832385 0  0.008315609113802334 0.08258238701482568 0  0.01083367395426429 0.08228992349402627 0  0.01344419779866533 0.1021188207215025 0  0.00897704150300881 0.1026080539034498 0  0.004492796898629609 0.1029019668229313 0  0.003620409151322889 0.0829210023912942 0  0.006151004686218146 0.08277176536325732 0  0.006002787705827346 0.08077726499305835 0  -0.006002787705827337 0.08077726499305835 0  -0.006151004686218136 0.08277176536325732 0  -0.003620409151322879 0.0829210023912942 0  -0.004492796898629596 0.1029019668229313 0  -0.008977041503008775 0.1026080539034498 0  -0.01344419779866531 0.1021188207215025 0  -0.01083367395426428 0.08228992349402627 0  -0.008315609113802325 0.08258238701482568 0  -0.008115232990578173 0.08059244997832385 0  -0.01993841673534844 0.07850770368624711 0  -0.02043072332140642 0.08044616550566062 0  -0.01796448795686253 0.08103256859095448 0  -0.02229328023562459 0.1005584887333531 0  -0.02665836164555962 0.09949036010777403 0  -0.03097269734894013 0.09823284592706737 0  -0.02495858135885468 0.07915850691210284 0  -0.02252955733880116 0.07988378462565272 0  -0.02198667643907101 0.07795887415274544 0  -0.03326822706169166 0.07385272552974417 0  -0.03408966476691862 0.07567624961689835 0  -0.03176272488630245 0.07668200119843681 0  -0.03941639353360424 0.09515959184866253 0  -0.04352968095929203 0.09334970206477496 0  -0.04756010716320848 0.09136211581735684 0  -0.03832513489850781 0.07362189915379241 0  -0.03605895636456662 0.07475795386377479 0  -0.03519006584975778 0.07295655738512961 0  -0.04558719914330055 0.06695376967930228 0  -0.04671280899869069 0.06860694917755666 0  -0.04459586749278639 0.07000149000246951 0  -0.05534185965972286 0.08686931891872721 0  -0.05907837294415771 0.08437266056176618 0  -0.06270242718789819 0.08171539404999724 0  -0.05052719860772379 0.06584832724417254 0  -0.04849272224790704 0.06736064050309604 0  -0.04732422291663217 0.06573749253916601 0  -0.05652102724717608 0.05802045741739702 0  -0.05791660816685944 0.05945306130424632 0  -0.0560739872320998 0.0611940189552403 0  -0.069585791384413 0.07593956569144278 0  -0.07283199846221439 0.0728319984622144 0  -0.07593956569144276 0.06958579138441301 0  -0.06119401895524029 0.05607398723209981 0  -0.0594530613042463 0.05791660816685946 0  -0.058020457417397 0.0565210272471761 0  -0.065737492539166 0.04732422291663219 0  -0.06736064050309602 0.04849272224790706 0  -0.0658483272441725 0.05052719860772384 0  -0.0817153940499972 0.06270242718789824 0  -0.08437266056176614 0.05907837294415778 0  -0.08686931891872721 0.05534185965972288 0  -0.0700014900024695 0.04459586749278641 0  -0.06860694917755665 0.04671280899869071 0  -0.06695376967930228 0.04558719914330057 0  -0.07295655738512961 0.03519006584975779 0  -0.07475795386377479 0.03605895636456663 0  -0.07362189915379239 0.03832513489850785 0  -0.09136211581735681 0.04756010716320853 0  -0.09334970206477494 0.04352968095929204 0  -0.09515959184866253 0.03941639353360425 0  -0.07668200119843681 0.03176272488630246 0  -0.07567624961689835 0.03408966476691861 0  -0.07385272552974417 0.03326822706169166 0  -0.07795887415274544 0.02198667643907101 0  -0.07988378462565272 0.02252955733880116 0  -0.07915850691210286 0.02495858135885465 0  -0.09823284592706738 0.03097269734894011 0  -0.09949036010777403 0.02665836164555966 0  -0.1005584887333531 0.02229328023562463 0  -0.08103256859095447 0.01796448795686257 0  -0.08044616550566062 0.02043072332140644 0  -0.07850770368624711 0.01993841673534845 0  -0.08059244997832385 0.008115232990578187 0  -0.08258238701482568 0.008315609113802341 0  -0.08228992349402627 0.01083367395426428 0  -0.1021188207215025 0.01344419779866531 0  -0.1026080539034498 0.008977041503008839 0  -0.1029019668229313 0.004492796898629661 0  -0.0829210023912942 0.003620409151322931 0  -0.08277176536325731 0.006151004686218169 0  -0.08077726499305833 0.00600278770582737 0  -0.08077726499305835 -0.006002787705827315 0  -0.08277176536325732 -0.006151004686218113 0  -0.0829210023912942 -0.003620409151322874 0  -0.1029019668229313 -0.00449279689862959 0  -0.1026080539034498 -0.008977041503008768 0  -0.1021188207215025 -0.01344419779866529 0  -0.08228992349402628 -0.01083367395426426 0  -0.08258238701482568 -0.00831560911380232 0  -0.08059244997832385 -0.008115232990578166 0  -0.07850770368624711 -0.01993841673534843 0  -0.08044616550566062 -0.02043072332140642 0  -0.08103256859095448 -0.01796448795686251 0  -0.1005584887333531 -0.02229328023562456 0  -0.09949036010777404 -0.02665836164555959 0  -0.09823284592706738 -0.03097269734894008 0  -0.07915850691210286 -0.02495858135885463 0  -0.07988378462565274 -0.02252955733880114 0  -0.07795887415274544 -0.02198667643907099 0  -0.07385272552974419 -0.03326822706169164 0  -0.07567624961689837 -0.0340896647669186 0  -0.07668200119843682 -0.03176272488630241 0  -0.09515959184866256 -0.03941639353360419 0  -0.09334970206477496 -0.04352968095929202 0  -0.09136211581735684 -0.04756010716320847 0  -0.07362189915379241 -0.0383251348985078 0  -0.0747579538637748 -0.03605895636456661 0  -0.07295655738512963 -0.03519006584975778 0  -0.06695376967930228 -0.04558719914330055 0  -0.06860694917755666 -0.04671280899869069 0  -0.07000149000246951 -0.04459586749278639 0  -0.08686931891872721 -0.05534185965972286 0  -0.08437266056176618 -0.05907837294415771 0  -0.08171539404999724 -0.06270242718789819 0  -0.06584832724417254 -0.05052719860772379 0  -0.06736064050309604 -0.04849272224790704 0  -0.06573749253916601 -0.04732422291663217 0  -0.05802045741739702 -0.05652102724717608 0  -0.05945306130424632 -0.05791660816685944 0  -0.0611940189552403 -0.0560739872320998 0  -0.07593956569144278 -0.069585791384413 0  -0.0728319984622144 -0.07283199846221439 0  -0.06958579138441302 -0.07593956569144275 0  -0.05607398723209982 -0.06119401895524029 0  -0.05791660816685946 -0.0594530613042463 0  -0.0565210272471761 -0.05802045741739699 0  -0.04732422291663223 -0.06573749253916598 0  -0.04849272224790709 -0.06736064050309601 0  -0.05052719860772384 -0.0658483272441725 0  -0.06270242718789824 -0.0817153940499972 0  -0.05907837294415778 -0.08437266056176612 0  -0.05534185965972289 -0.08686931891872721 0  -0.04459586749278641 -0.0700014900024695 0  -0.04671280899869071 -0.06860694917755664 0  -0.04558719914330057 -0.06695376967930226 0  -0.03519006584975783 -0.0729565573851296 0  -0.03605895636456666 -0.07475795386377478 0  -0.03832513489850786 -0.07362189915379239 0  -0.04756010716320853 -0.09136211581735681 0  -0.04352968095929209 -0.09334970206477491 0  -0.0394163935336043 -0.0951595918486625 0  -0.0317627248863025 -0.07668200119843678 0  -0.03408966476691865 -0.07567624961689834 0  -0.03326822706169169 -0.07385272552974416 0  -0.02198667643907108 -0.07795887415274541 0  -0.02252955733880123 -0.07988378462565271 0  -0.02495858135885472 -0.
[...]
<CellData  Vectors="f_320"> 
<DataArray  type="Float64"  Name="f_320"  NumberOfComponents="3" format="ascii">-2.4108062650380549e-01  5.7914351098380623e-01 0.0000000000000000e+00  -7.2949234628575477e-01  1.1414050054988296e+00 0.0000000000000000e+00  -1.1992675144592528e+00  -6.2851219240131484e-01 0.0000000000000000e+00  1.1439313237076272e+00  -7.2433543781354048e-01 0.0000000000000000e+00  9.4072543873631828e-02  -4.1991878102447305e-01 0.0000000000000000e+00  2.7231437586813473e-01  6.6955457578569899e-01 0.0000000000000000e+00  5.7914701563550275e-01  2.4108268881955561e-01 0.0000000000000000e+00  6.1044718201027734e-02  -1.3533271463726761e+00 0.0000000000000000e+00  -5.7039989748931375e-01  -4.4363069403036881e-01 0.0000000000000000e+00  3.2286004824322079e-01  -7.2634112203339971e-02 0.0000000000000000e+00  4.4363000491623217e-01  -5.7039826784785652e-01 0.0000000000000000e+00  2.4108204766911709e-01  -5.7914734810118873e-01 0.0000000000000000e+00  1.2855294743997378e-01  4.1089506814321963e-01 0.0000000000000000e+00  8.0723063975236473e-02  6.2210099294880628e-01 0.0000000000000000e+00  -1.1414536582118548e+00  -7.2952359072591288e-01 0.0000000000000000e+00  -1.1438843957054972e+00  7.2430486086223289e-01 0.0000000000000000e+00  6.2850814155883161e-01  -1.1992614742386962e+00 0.0000000000000000e+00  4.1082882397122472e-01  -1.2853235869293453e-01 0.0000000000000000e+00  7.2952014817481703e-01  -1.1414472863615577e+00 0.0000000000000000e+00  7.2430285829333019e-01  1.1438796486159313e+00 0.0000000000000000e+00  -7.2572906963708633e-02  -3.2264320532027729e-01 0.0000000000000000e+00  -6.6955326138367210e-01  2.7231448375440448e-01 0.0000000000000000e+00  7.2634278954133616e-02  3.2286089751279662e-01 0.0000000000000000e+00  -4.2005696207869431e-01  -9.4103026883101640e-02 0.0000000000000000e+00  3.1592187245404096e-01  9.8540004117302626e-02 0.0000000000000000e+00  -8.0713845173468107e-02  -6.2163047300275220e-01 0.0000000000000000e+00  2.2437245940568132e-01  2.4335609603973102e-01 0.0000000000000000e+00  9.8539657158569313e-02  -3.1592075045046725e-01 0.0000000000000000e+00  -6.2173744337048908e-01  8.0675240651373950e-02 0.0000000000000000e+00  -2.9153054824186081e-01  3.1674175886154315e-01 0.0000000000000000e+00  1.2025043810024028e+00  -6.2376072924483084e-01 0.0000000000000000e+00  -9.8540176623239259e-02  3.1592169072863829e-01 0.0000000000000000e+00  -9.8919608223959926e-02  7.1591758250346504e-01 0.0000000000000000e+00  -3.2268737335609299e-01  7.2582814119591374e-02 0.0000000000000000e+00  -2.7219953755611981e-01  -6.6947717283067942e-01 0.0000000000000000e+00  -7.1591233675496413e-01  -9.8918413610406750e-02 0.0000000000000000e+00  -3.1590340503438963e-01  -9.8534300242372155e-02 0.0000000000000000e+00  9.8874510858844425e-02  -7.1557331424565207e-01 0.0000000000000000e+00  7.1557748053821280e-01  9.8874389479922623e-02 0.0000000000000000e+00  -1.2853563205555013e-01  -4.1081264565437631e-01 0.0000000000000000e+00  -5.7913340686568160e-01  -2.4107706008753951e-01 0.0000000000000000e+00  -6.2848034980055800e-01  1.1992077004165593e+00 0.0000000000000000e+00  -2.4324049826538180e-01  2.2426649683417538e-01 0.0000000000000000e+00  6.2210000430752443e-01  -8.0723315145765182e-02 0.0000000000000000e+00  -5.5312369982756092e-02  -1.3528801529674577e+00 0.0000000000000000e+00  1.1414580787100879e+00  7.2952634523656057e-01 0.0000000000000000e+00  -7.2433706927484243e-01  -1.1439345217476564e+00 0.0000000000000000e+00  -9.4103477428956583e-02  4.2005905217741080e-01 0.0000000000000000e+00  4.9828868387204334e-01  -3.8096387500353823e-01 0.0000000000000000e+00  -2.2437916747865211e-01  -2.4336341291387173e-01 0.0000000000000000e+00  -3.1679723845751434e-01  -2.9158136067803231e-01 0.0000000000000000e+00  1.3528186083400107e+00  -5.5287150977374522e-02 0.0000000000000000e+00  6.6948188095185002e-01  -2.7220109049571112e-01 0.0000000000000000e+00  4.1993168040606643e-01  9.4075477201605875e-02 0.0000000000000000e+00  2.9157941496994805e-01  -3.1679509819043089e-01 0.0000000000000000e+00  5.7039875015261743e-01  4.4362984006664929e-01 0.0000000000000000e+00  -6.1042002975916818e-02  1.3532555531713029e+00 0.0000000000000000e+00  -1.3528185654843707e+00  5.5287841965696825e-02 0.0000000000000000e+00  -4.1088298453044003e-01  1.2855779502247994e-01 0.0000000000000000e+00  -1.3532551535750776e+00  -6.1041419157124618e-02 0.0000000000000000e+00  -4.9800224010190430e-01  3.8074350475615493e-01 0.0000000000000000e+00  -1.2024600585820131e+00  6.2374014829337310e-01 0.0000000000000000e+00  3.8096066743324247e-01  4.9828482981796457e-01 0.0000000000000000e+00  -4.4342626906490618e-01  5.7025848850426242e-01 0.0000000000000000e+00  1.1992696740533311e+00  6.2851332376960467e-01 0.0000000000000000e+00  1.3532551063552345e+00  6.1041433579068667e-02 0.0000000000000000e+00  5.5287874024949273e-02  1.3528190672648432e+00 0.0000000000000000e+00  3.1679474853606909e-01  2.9157910051984121e-01 0.0000000000000000e+00  2.4335955839938073e-01  -2.2437568618794679e-01 0.0000000000000000e+00  6.2373725443032479e-01  1.2024559020183145e+00 0.0000000000000000e+00  -6.2376317150758198e-01  -1.2025071075614757e+00 0.0000000000000000e+00  -3.8096587833480444e-01  -4.9829179796764134e-01 0.0000000000000000e+00  2.1482333657518299e-01  3.3492731495130917e-01 0.0000000000000000e+00  1.1707479666571990e-01  -3.5526206717437869e-01 0.0000000000000000e+00  3.5526970858469542e-01  1.1708768926816318e-01 0.0000000000000000e+00  -2.1480812664356719e-01  -3.3492728093636620e-01 0.0000000000000000e+00  -8.5982486780411260e-01  -2.3537314840505577e-01 0.0000000000000000e+00  -7.7786787294035453e-01  2.6755448385651603e-01 0.0000000000000000e+00  2.3539592268257351e-01  -8.5979401914422715e-01 0.0000000000000000e+00  7.7790190861361408e-01  -2.6754993163458302e-01 0.0000000000000000e+00  -2.6751433557578225e-01  -7.7786354114847567e-01 0.0000000000000000e+00  -1.1753002615752624e+00  -3.5048688384371884e-01 0.0000000000000000e+00  -3.8675812863973374e-01  -1.1380651865830167e+00 0.0000000000000000e+00  1.1752960838883579e+00  3.5049433149789655e-01 0.0000000000000000e+00  -1.1379973451084868e+00  3.8675392932282693e-01 0.0000000000000000e+00  -3.9167727335173369e-01  1.5339306103926462e-02 0.0000000000000000e+00  -3.6040798061658380e-01  8.1092248456426472e-02 0.0000000000000000e+00  -1.5347260572883104e-02  -3.9164281269326373e-01 0.0000000000000000e+00  8.1131990117020089e-02  3.6040529603717558e-01 0.0000000000000000e+00  1.5333617682114402e-02  3.9165868698378548e-01 0.0000000000000000e+00  3.9166038597144537e-01  -1.5307687110334879e-02 0.0000000000000000e+00  -1.1642309330440812e+00  -6.7513021110335747e-01 0.0000000000000000e+00  6.7512369080091794e-01  -1.1642260584140529e+00 0.0000000000000000e+00  -6.7514322213236011e-01  1.1641484501512711e+00 0.0000000000000000e+00  -4.3202876911491928e-01  1.2972371841210334e-01 0.0000000000000000e+00  1.3429488895663499e-01  5.2765334626608273e-01 0.0000000000000000e+00  1.4747747232150193e-01  -5.2354240765690363e-01 0.0000000000000000e+00  2.4588265803094367e-03  -1.3459758874699970e+00 0.0000000000000000e+00  4.3947602062474889e-01  1.0387758270902200e-01 0.0000000000000000e+00  1.1667710312044590e+00  -6.7070882712591273e-01 0.0000000000000000e+00  1.2979958120697210e-01  4.3252797951703681e-01 0.0000000000000000e+00  1.0387706404064428e-01  -4.3947572944024771e-01 0.0000000000000000e+00  -1.1667190797637756e+00  6.7069114670292673e-01 0.0000000000000000e+00  -5.2403018729665218e-01  -1.4754408078037937e-01 0.0000000000000000e+00  5.2758242183665249e-01  -1.3425281617098567e-01 0.0000000000000000e+00  -1.2971954417477322e-01  -4.3196606824820438e-01 0.0000000000000000e+00  6.7068587209027308e-01  1.1667160444145868e+00 0.0000000000000000e+00  3.8995773318950694e-01  -3.7993002659110026e-01 0.0000000000000000e+00  -3.7993199922717485e-01  -3.8995858652209908e-01 0.0000000000000000e+00  4.3252712875362254e-01  -1.2979986379205938e-01 0.0000000000000000e+00  -1.0387235422106424e-01  4.3947744955114310e-01 0.0000000000000000e+00  -1.4754014275061997e-01  5.2403314915400689e-01 0.0000000000000000e+00  -1.3425516053022332e-01  -5.2757124257081267e-01 0.0000000000000000e+00  1.3459079409375507e+00  2.4738842064211401e-03 0.0000000000000000e+00  3.2882545039816119e-01  3.0957880042484581e-01 0.0000000000000000e+00  5.2355098084034690e-01  1.4748221422712463e-01 0.0000000000000000e+00  -5.2764551908902080e-01  1.3429946425366057e-01 0.0000000000000000e+00  3.0958217894766576e-01  -3.2882862932338941e-01 0.0000000000000000e+00  -3.8969871631712405e-01  3.7961073693655717e-01 0.0000000000000000e+00  -1.3459079261839779e+00  -2.4734883639075948e-03 0.0000000000000000e+00  -6.7071352080280677e-01  -1.1667726145385466e+00 0.0000000000000000e+00  -3.2883092299599814e-01  -3.0958590022206023e-01 0.0000000000000000e+00  -3.0919302043356783e-01  3.2852443515869501e-01 0.0000000000000000e+00  -4.3946113610681165e-01  -1.0387175404753904e-01 0.0000000000000000e+00  -2.4736680544522049e-03  1.3459083776287006e+00 0.0000000000000000e+00  1.1642026223351598e+00  6.7518654626110997e-01 0.0000000000000000e+00  3.7993014103343453e-01  3.8995726899219130e-01 0.0000000000000000e+00  -5.4841564669998044e-01  6.4603991309991371e-01 0.0000000000000000e+00  -6.4605085099419102e-01  -5.4837403677508267e-01 0.0000000000000000e+00  1.5066584436099961e-01  -8.5683201746360260e-01 0.0000000000000000e+00  8.5679358709380693e-01  1.5067106314343304e-01 0.0000000000000000e+00  6.6890285337172584e-01  -6.3602360237129030e-01 0.0000000000000000e+00  -6.6885166320830003e-01  6.3599447319980662e-01 0.0000000000000000e+00  9.0721851057824865e-01  -8.5083491075930728e-01 0.0000000000000000e+00  8.5079985515557122e-01  9.0719403642743235e-01 0.0000000000000000e+00  3.5187994874627881e-01  1.7246830088222309e-01 0.0000000000000000e+00  -1.7246592017126255e-01  3.5190951440234119e-01 0.0000000000000000e+00  -7.9374771168931701e-01  9.2172221217542105e-01 0.0000000000000000e+00  7.9377675141558901e-01  -9.2176322506601516e-01 0.0000000000000000e+00  2.4609835240847905e-01  2.7692290105341905e-01 0.0000000000000000e+00  -3.3309314625041364e-01  2.1515237173211893e-01 0.0000000000000000e+00  -1.1694863159015788e-01  3.5446442478645224e-01 0.0000000000000000e+00  -3.5449569773270295e-01  -1.1689083439663125e-01 0.0000000000000000e+00  3.3309787578533334e-01  -2.1514952636434234e-01 0.0000000000000000e+00  -2.4300448281077278e-01  8.6644809615461804e-01 0.0000000000000000e+00  2.7446641426050938e-01  7.8396877810225474e-01 0.0000000000000000e+00  8.6637092058227250e-01  2.4299580864807585e-01 0.0000000000000000e+00  -3.4095766086663171e-01  1.1835048547318672e+00 0.0000000000000000e+00  3.4098689655085168e-01  -1.1835635163868203e+00 0.0000000000000000e+00  3.7719839635361796e-01  1.1465571764265625e+00 0.0000000000000000e+00  1.1465766991870943e+00  -3.7722737361486025e-01 0.0000000000000000e+00  3.6041433571862047e-01  -8.1116785154376370e-02 0.0000000000000000e+00  -8.1142232979037263e-02  -3.6042825169396675e-01 0.0000000000000000e+00  -4.1714316899429327e-01  1.4506619788642650e-01 0.0000000000000000e+00  1.4502970801510734e-01  4.1719359426832048e-01 0.0000000000000000e+00  4.1712596864010820e-01  -1.4505341107655834e-01 0.0000000000000000e+00  -1.4501751712685773e-01  -4.1718915233993104e-01 0.0000000000000000e+00  -2.0893468072489901e-01  -2.8113111448878025e-01 0.0000000000000000e+00  2.8038126654818007e-01  -2.1144149460630199e-01 0.0000000000000000e+00  2.0892995823220753e-01  2.8113924317579814e-01 0.0000000000000000e+00  -2.8036848496890915e-01  2.1143761931325433e-01 0.0000000000000000e+00  -5.5607969974817018e-01  -3.5808286956518998e-02 0.0000000000000000e+00  -3.5793819976393727e-02  5.5609098313789684e-01 0.0000000000000000e+00  5.5605125739277705e-01  3.5806438370169398e-02 0.0000000000000000e+00  3.5792904827494282e-02  -5.5607647396682847e-01 0.0000000000000000e+00  5.4923789372702536e-01  -6.4573752509591142e-01 0.0000000000000000e+00  6.4575224255795050e-01  5.4924785374308582e-01 0.0000000000000000e+00  -1.5066551546887874e-01  8.5680127105066262e-01 0.0000000000000000e+00  -8.5663774603485987e-01  -1.5074609493159569e-01 0.0000000000000000e+00  6.3685326928524011e-01  6.6867384386976536e-01 0.0000000000000000e+00  -6.3682351856017161e-01  -6.6865870422034346e-01 0.0000000000000000e+00  -8.5387939924777434e-01  -9.0558999992529210e-01 0.0000000000000000e+00  -9.0552918642048685e-01  8.5386443118380528e-01 0.0000000000000000e+00  -3.5146491385876177e-01  -1.7223793745531613e-01 0.0000000000000000e+00  1.7229414466832479e-01  -3.5141901992792213e-01 0.0000000000000000e+00  9.1992034123342070e-01  7.9669952203372407e-01 0.0000000000000000e+00  -9.1992019782901613e-01  -7.9668944373307260e-01 0.0000000000000000e+00  2.7647804868138753e-01  -2.4593200974472973e-01 0.0000000000000000e+00  -2.4585619950688478e-01  -2.7648522032105632e-01 0.0000000000000000e+00  -2.7646300878582253e-01  2.4594530613794838e-01 0.0000000000000000e+00  -9.2037337622999205e-01  2.1592853526721167e-01 0.0000000000000000e+00  -2.1591026419280004e-01  -9.2030334135910685e-01 0.0000000000000000e+00  9.2033441726864396e-01  -2.1590298326776208e-01 0.0000000000000000e+00  2.1606776401198857e-01  9.1992623686672492e-01 0.0000000000000000e+00  -1.2117208058582425e-01  3.5351041755097817e-01 0.0000000000000000e+00  -3.5353389664381063e-01  -1.2114878726309487e-01 0.0000000000000000e+00  -3.4513937822164814e-01  1.6617796326288470e-01 0.0000000000000000e+00  3.4515053451143962e-01  -1.6614898968182204e-01 0.0000000000000000e+00  3.7868980464152996e-01  -2.8963513804836749e-02 0.0000000000000000e+00  -2.8976272562629583e-02  -3.7870816710012106e-01 0.0000000000000000e+00  1.2169272986707289e-01  -3.5427961221651538e-01 0.0000000000000000e+00  3.5428941219477983e-01  1.2169547633252170e-01 0.0000000000000000e+00  3.0942621878721599e-01  2.1600896891454868e-01 0.0000000000000000e+00  -2.1601494147673633e-01  3.0944763969909966e-01 0.0000000000000000e+00  5.4194955291213043e-01  -3.0055267366363142e-01 0.0000000000000000e+00  3.0052356947067604e-01  5.4192902921703057e-01 0.0000000000000000e+00  2.4739392505906294e-01  2.7566139403856388e-01 0.0000000000000000e+00  -2.6117837361158508e-01  5.5321126382826591e-01 0.0000000000000000e+00  2.6120517978490565e-01  -5.5325073121359181e-01 0.0000000000000000e+00  1.6669875747002882e-01  3.4613645945678456e-01 0.0000000000000000e+00  -1.6668913036004018e-01  -3.4613512509479327e-01 0.0000000000000000e+00  2.8974833383941637e-02  3.7868212647019350e-01 0.0000000000000000e+00  -3.7866449093390431e-01  2.8993079866485864e-02 0.0000000000000000e+00  -3.0911939163866348e-01  -2.1555549129462118e-01 0.0000000000000000e+00  2.1557887870312145e-01  -3.0910558104674568e-01 0.0000000000000000e+00  -3.0360048713775345e-01  -5.4187005076533445e-01 0.0000000000000000e+00  -5.4181779171044642e-01  3.0359846126572199e-01 0.0000000000000000e+00  -2.7540610223070128e-01  2.4702795015280526e-01 0.0000000000000000e+00  2.7541366171882775e-01  -2.4702231632758068e-01 0.0000000000000000e+00  -2.4698696567291376e-01  -2.7538130141481532e-01 0.0000000000000000e+00  -5.5281326791204954e-01  -2.6380540353430676e-01 0.0000000000000000e+00  5.5281186525857706e-01  2.6381323761263120e-01 0.0000000000000000e+00  -2.1417809548107808e-01  -1.7398504113091698e-01 0.0000000000000000e+00  -1.7426136584192475e-01  2.1372033118358133e-01 0.0000000000000000e+00  2.1371492278963955e-01  1.7424994125365853e-01 0.0000000000000000e+00  1.7400865776748067e-01  -2.1419190911323552e-01 0.0000000000000000e+00  2.2778726070231944e-01  -2.0599316152950997e-01 0.0000000000000000e+00  -2.0630820219150231e-01  -2.2728695153039377e-01 0.0000000000000000e+00  -2.2778891698552048e-01  2.0599834037209483e-01 0.0000000000000000e+00  2.0628757433177047e-01  2.2726296758162415e-01 0.0000000000000000e+00  -3.9082129612981009e-01  1.2896577410489439e-02 0.0000000000000000e+00  -1.2889992170116884e-02  -3.9078174048881803e-01 0.0000000000000000e+00  3.9081029028030667e-01  -1.2881742723350964e-02 0.0000000000000000e+00  1.2786192345320857e-02  3.9076602212554518e-01 0.0000000000000000e+00  -1.7945094140142781e-02  4.2318091729734725e-01 0.0000000000000000e+00  1.7947792170189880e-02  -4.2318023656844550e-01 0.0000000000000000e+00  4.2312728737399352e-01  1.7971827016851516e-02 0.0000000000000000e+00  -4.2317373509495992e-01  -1.7962445646184599e-02 0.0000000000000000e+00  -3.4492188683019703e-01  -1.9677800055711592e-01 0.0000000000000000e+00  3.4491821904585213e-01  1.9677935782824393e-01 0.0000000000000000e+00  1.9677835782354991e-01  -3.4489897421462540e-01 0.0000000000000000e+00  -1.9678707713874499e-01  3.4485433207635158e-01 0.0000000000000000e+00  1.7199614016687970e-01  -3.2605468345768190e-01 0.0000000000000000e+00  -3.2682977803070162e-01  -1.6961025767370272e-01 0.0000000000000000e+00  3.2602579092132589e-01  1.7200969974304176e-01 0.0000000000000000e+00  -1.6960892368929503e-01  3.2682546731402795e-01 0.0000000000000000e+00  -3.3636735361544379e-02  -3.7344797613745406e-01 0.0000000000000000e+00  3.7341952296854497e-01  -3.3625082139343981e-02 0.0000000000000000e+00  -3.7337367012748246e-01  3.3782146749334746e-02 0.0000000000000000e+00  3.3850880511250375e-02  3.7338478303481387e-01 0.0000000000000000e+00  2.3441388211436764e-03  -3.2867955744123256e-01 0.0000000000000000e+00  -2.3475852312514200e-03  3.2868739894499244e-01 0.0000000000000000e+00  3.2875641393408273e-01  2.1197597625661757e-03 0.0000000000000000e+00  -3.2874281164399355e-01  -2.1200118721999284e-03 0.0000000000000000e+00  -5.6066951424715050e-01  1.7613533920231655e-01 0.0000000000000000e+00  2.7338522751234029e-01  -3.5772141996448410e-02 0.0000000000000000e+00  6.1606594847760410e-01  -9.6511159546525005e-01 0.0000000000000000e+00  1.1451804979224733e+00  5.1018825560461722e-02 0.0000000000000000e+00  1.2840119095223040e-01  -5.7636124754782081e-01 0.0000000000000000e+00  -9.9933979709705756e-01  -5.2022308686656127e-01 0.0000000000000000e+00  -5.1961042186882078e-01  -1.0004170395530774e+00 0.0000000000000000e+00  -1.0538467435384551e-01  2.5387598568086750e-01 0.0000000000000000e+00  5.1013254320863878e-02  -1.1452081529926663e+00 0.0000000000000000e+00  -3.5586647217434325e-01  -4.7669903798125184e-02 0.0000000000000000e+00  3.5800880284281397e-02  2.7338779846844746e-01 0.0000000000000000e+00  2.1310923017236655e-01  -2.7641545756558450e-01 0.0000000000000000e+00  -2.7642217835341476e-01  -2.1311412226559517e-01 0.0000000000000000e+00  -1.7612318248081388e-01  -5.6063094691603221e-01 0.0000000000000000e+00  -2.1030873918046597e-01  1.6111180518370824e-01 0.0000000000000000e+00  6.1466870478913016e-01  9.6485565507034776e-01 0.0000000000000000e+00  -1.1451760106090609e+00  -5.1018596018916118e-02 0.0000000000000000e+00  -1.6114415523579234e-01  -2.1030509895761426e-01 0.0000000000000000e+00  9.6488423104557397e-01  -6.1468696293661618e-01 0.0000000000000000e+00  9.9934209241557359e-01  5.2022429048537933e-01 0.0000000000000000e+00  -4.7486911793935832e-01  -1.4906545479973138e-01 0.0000000000000000e+00  3.4673090728588418e-01  3.7747871079715833e-01 0.0000000000000000e+00  1.3654765956309903e-01  3.3180470979200183e-01 0.0000000000000000e+00  3.7748713359228886e-01  -3.4673865941496579e-01 0.0000000000000000e+00  3.3177579236117144e-01  -1.3653531554218890e-01 0.0000000000000000e+00  -1.2842412479920068e-01  5.7634030042889473e-01 0.0000000000000000e+00  3.5588077350745434e-01  4.7671788122754376e-02 0.0000000000000000e+00  2.7642668008351462e-01  2.1311758887088547e-01 0.0000000000000000e+00  -5.1012324891067620e-02  1.1451860316470741e+00 0.0000000000000000e+00  -1.0003780853574631e+00  5.1957834174616346e-01 0.0000000000000000e+00  4.7488333692672996e-01  1.4909725474569410e-01 0.0000000000000000e+00  -1.0895324934806042e-01  -4.8856767870356371e-01 0.0000000000000000e+00  1.4909406141390477e