<?xml version="1.0"?>
<VTKFile type="UnstructuredGrid"  version="0.1"  >
<UnstructuredGrid>
<Piece  NumberOfPoints="3091" NumberOfCells="6066">
<Points>
<DataArray  type="Float64"  NumberOfComponents="3"  format="ascii">0.1026080539034498 0.008977041503008791 0  0.1021188207215025 0.01344419779866531 0  0.08228992349402627 0.01083367395426428 0  0.08258238701482568 0.008315609113802332 0  0.08059244997832385 0.00811523299057818 0  0.07850770368624711 0.01993841673534844 0  0.08044616550566062 0.02043072332140642 0  0.08103256859095448 0.01796448795686254 0  0.1005584887333531 0.02229328023562459 0  0.09949036010777403 0.02665836164555964 0  0.09823284592706737 0.03097269734894013 0  0.07915850691210284 0.02495858135885467 0  0.07988378462565272 0.02252955733880117 0  0.07795887415274544 0.02198667643907102 0  0.07385272552974417 0.03326822706169166 0  0.07567624961689835 0.03408966476691861 0  0.07668200119843681 0.03176272488630245 0  0.09515959184866253 0.03941639353360425 0  0.09334970206477494 0.04352968095929204 0  0.09136211581735683 0.04756010716320849 0  0.0736218991537924 0.03832513489850781 0  0.07475795386377479 0.03605895636456662 0  0.07295655738512961 0.03519006584975778 0  0.06695376967930228 0.04558719914330055 0  0.06860694917755666 0.04671280899869069 0  0.07000149000246952 0.04459586749278639 0  0.08686931891872722 0.05534185965972286 0  0.08437266056176615 0.05907837294415774 0  0.08171539404999721 0.06270242718789822 0  0.06584832724417253 0.05052719860772381 0  0.06736064050309602 0.04849272224790706 0  0.065737492539166 0.04732422291663219 0  0.058020457417397 0.05652102724717609 0  0.05945306130424632 0.05791660816685945 0  0.0611940189552403 0.0560739872320998 0  0.07593956569144278 0.069585791384413 0  0.0728319984622144 0.07283199846221439 0  0.06958579138441301 0.07593956569144276 0  0.05607398723209981 0.06119401895524029 0  0.05791660816685946 0.0594530613042463 0  0.0565210272471761 0.05802045741739699 0  0.0473242229166322 0.06573749253916598 0  0.04849272224790706 0.06736064050309601 0  0.05052719860772382 0.06584832724417251 0  0.06270242718789823 0.08171539404999721 0  0.05907837294415775 0.08437266056176614 0  0.05534185965972286 0.08686931891872721 0  0.04459586749278639 0.07000149000246951 0  0.0467128089986907 0.06860694917755665 0  0.04558719914330056 0.06695376967930228 0  0.03519006584975779 0.07295655738512961 0  0.03605895636456662 0.07475795386377479 0  0.03832513489850781 0.0736218991537924 0  0.04756010716320849 0.09136211581735683 0  0.04352968095929206 0.09334970206477493 0  0.03941639353360425 0.09515959184866253 0  0.03176272488630246 0.07668200119843681 0  0.03408966476691862 0.07567624961689835 0  0.03326822706169167 0.07385272552974417 0  0.02198667643907102 0.07795887415274544 0  0.02252955733880117 0.07988378462565272 0  0.02495858135885468 0.07915850691210283 0  0.03097269734894014 0.09823284592706735 0  0.02665836164555966 0.09949036010777403 0  0.0222932802356246 0.1005584887333531 0  0.01796448795686254 0.08103256859095448 0  0.02043072332140643 0.08044616550566062 0  0.01993841673534845 0.07850770368624711 0  0.008115232990578182 0.08059244997832385 0  0.008315609113802334 0.08258238701482568 0  0.01083367395426429 0.08228992349402627 0  0.01344419779866533 0.1021188207215025 0  0.00897704150300881 0.1026080539034498 0  0.004492796898629609 0.1029019668229313 0  0.003620409151322889 0.0829210023912942 0  0.006151004686218146 0.08277176536325732 0  0.006002787705827346 0.08077726499305835 0  -0.006002787705827337 0.08077726499305835 0  -0.006151004686218136 0.08277176536325732 0  -0.003620409151322879 0.0829210023912942 0  -0.004492796898629596 0.1029019668229313 0  -0.008977041503008775 0.1026080539034498 0  -0.01344419779866531 0.1021188207215025 0  -0.01083367395426428 0.08228992349402627 0  -0.008315609113802325 0.08258238701482568 0  -0.008115232990578173 0.08059244997832385 0  -0.01993841673534844 0.07850770368624711 0  -0.02043072332140642 0.08044616550566062 0  -0.01796448795686253 0.08103256859095448 0  -0.02229328023562459 0.1005584887333531 0  -0.02665836164555962 0.09949036010777403 0  -0.03097269734894013 0.09823284592706737 0  -0.02495858135885468 0.07915850691210284 0  -0.02252955733880116 0.07988378462565272 0  -0.02198667643907101 0.07795887415274544 0  -0.03326822706169166 0.07385272552974417 0  -0.03408966476691862 0.07567624961689835 0  -0.03176272488630245 0.07668200119843681 0  -0.03941639353360424 0.09515959184866253 0  -0.04352968095929203 0.09334970206477496 0  -0.04756010716320848 0.09136211581735684 0  -0.03832513489850781 0.07362189915379241 0  -0.03605895636456662 0.07475795386377479 0  -0.03519006584975778 0.07295655738512961 0  -0.04558719914330055 0.06695376967930228 0  -0.04671280899869069 0.06860694917755666 0  -0.04459586749278639 0.07000149000246951 0  -0.05534185965972286 0.08686931891872721 0  -0.05907837294415771 0.08437266056176618 0  -0.06270242718789819 0.08171539404999724 0  -0.05052719860772379 0.06584832724417254 0  -0.04849272224790704 0.06736064050309604 0  -0.04732422291663217 0.06573749253916601 0  -0.05652102724717608 0.05802045741739702 0  -0.05791660816685944 0.05945306130424632 0  -0.0560739872320998 0.0611940189552403 0  -0.069585791384413 0.07593956569144278 0  -0.07283199846221439 0.0728319984622144 0  -0.07593956569144276 0.06958579138441301 0  -0.06119401895524029 0.05607398723209981 0  -0.0594530613042463 0.05791660816685946 0  -0.058020457417397 0.0565210272471761 0  -0.065737492539166 0.04732422291663219 0  -0.06736064050309602 0.04849272224790706 0  -0.0658483272441725 0.05052719860772384 0  -0.0817153940499972 0.06270242718789824 0  -0.08437266056176614 0.05907837294415778 0  -0.08686931891872721 0.05534185965972288 0  -0.0700014900024695 0.04459586749278641 0  -0.06860694917755665 0.04671280899869071 0  -0.06695376967930228 0.04558719914330057 0  -0.07295655738512961 0.03519006584975779 0  -0.07475795386377479 0.03605895636456663 0  -0.07362189915379239 0.03832513489850785 0  -0.09136211581735681 0.04756010716320853 0  -0.09334970206477494 0.04352968095929204 0  -0.09515959184866253 0.03941639353360425 0  -0.07668200119843681 0.03176272488630246 0  -0.07567624961689835 0.03408966476691861 0  -0.07385272552974417 0.03326822706169166 0  -0.07795887415274544 0.02198667643907101 0  -0.07988378462565272 0.02252955733880116 0  -0.07915850691210286 0.02495858135885465 0  -0.09823284592706738 0.03097269734894011 0  -0.09949036010777403 0.02665836164555966 0  -0.1005584887333531 0.02229328023562463 0  -0.08103256859095447 0.01796448795686257 0  -0.08044616550566062 0.02043072332140644 0  -0.07850770368624711 0.01993841673534845 0  -0.08059244997832385 0.008115232990578187 0  -0.08258238701482568 0.008315609113802341 0  -0.08228992349402627 0.01083367395426428 0  -0.1021188207215025 0.01344419779866531 0  -0.1026080539034498 0.008977041503008839 0  -0.1029019668229313 0.004492796898629661 0  -0.0829210023912942 0.003620409151322931 0  -0.08277176536325731 0.006151004686218169 0  -0.08077726499305833 0.00600278770582737 0  -0.08077726499305835 -0.006002787705827315 0  -0.08277176536325732 -0.006151004686218113 0  -0.0829210023912942 -0.003620409151322874 0  -0.1029019668229313 -0.00449279689862959 0  -0.1026080539034498 -0.008977041503008768 0  -0.1021188207215025 -0.01344419779866529 0  -0.08228992349402628 -0.01083367395426426 0  -0.08258238701482568 -0.00831560911380232 0  -0.08059244997832385 -0.008115232990578166 0  -0.07850770368624711 -0.01993841673534843 0  -0.08044616550566062 -0.02043072332140642 0  -0.08103256859095448 -0.01796448795686251 0  -0.1005584887333531 -0.02229328023562456 0  -0.09949036010777404 -0.02665836164555959 0  -0.09823284592706738 -0.03097269734894008 0  -0.07915850691210286 -0.02495858135885463 0  -0.07988378462565274 -0.02252955733880114 0  -0.07795887415274544 -0.02198667643907099 0  -0.07385272552974419 -0.03326822706169164 0  -0.07567624961689837 -0.0340896647669186 0  -0.07668200119843682 -0.03176272488630241 0  -0.09515959184866256 -0.03941639353360419 0  -0.09334970206477496 -0.04352968095929202 0  -0.09136211581735684 -0.04756010716320847 0  -0.07362189915379241 -0.0383251348985078 0  -0.0747579538637748 -0.03605895636456661 0  -0.07295655738512963 -0.03519006584975778 0  -0.06695376967930228 -0.04558719914330055 0  -0.06860694917755666 -0.04671280899869069 0  -0.07000149000246951 -0.04459586749278639 0  -0.08686931891872721 -0.05534185965972286 0  -0.08437266056176618 -0.05907837294415771 0  -0.08171539404999724 -0.06270242718789819 0  -0.06584832724417254 -0.05052719860772379 0  -0.06736064050309604 -0.04849272224790704 0  -0.06573749253916601 -0.04732422291663217 0  -0.05802045741739702 -0.05652102724717608 0  -0.05945306130424632 -0.05791660816685944 0  -0.0611940189552403 -0.0560739872320998 0  -0.07593956569144278 -0.069585791384413 0  -0.0728319984622144 -0.07283199846221439 0  -0.06958579138441302 -0.07593956569144275 0  -0.05607398723209982 -0.06119401895524029 0  -0.05791660816685946 -0.0594530613042463 0  -0.0565210272471761 -0.05802045741739699 0  -0.04732422291663223 -0.06573749253916598 0  -0.04849272224790709 -0.06736064050309601 0  -0.05052719860772384 -0.0658483272441725 0  -0.06270242718789824 -0.0817153940499972 0  -0.05907837294415778 -0.08437266056176612 0  -0.05534185965972289 -0.08686931891872721 0  -0.04459586749278641 -0.0700014900024695 0  -0.04671280899869071 -0.06860694917755664 0  -0.04558719914330057 -0.06695376967930226 0  -0.03519006584975783 -0.0729565573851296 0  -0.03605895636456666 -0.07475795386377478 0  -0.03832513489850786 -0.07362189915379239 0  -0.04756010716320853 -0.09136211581735681 0  -0.04352968095929209 -0.09334970206477491 0  -0.0394163935336043 -0.0951595918486625 0  -0.0317627248863025 -0.07668200119843678 0  -0.03408966476691865 -0.07567624961689834 0  -0.03326822706169169 -0.07385272552974416 0  -0.02198667643907108 -0.07795887415274541 0  -0.02252955733880123 -0.07988378462565271 0  -0.02495858135885472 -0.
[...]
<PointData  Vectors="f_63"> 
<DataArray  type="Float64"  Name="f_63"  NumberOfComponents="3" format="ascii">3.7872294098004644e-03 -1.0462374745766664e-02 0.0000000000000000e+00  -2.4106647911943521e-03 -4.1034243120988308e-03 0.0000000000000000e+00  4.1745129655251637e-04 -6.5036103086437827e-02 0.0000000000000000e+00  8.4302819798934767e-03 -1.0828654508278691e-01 0.0000000000000000e+00  -1.8401413092299820e-01 1.8003363352620179e+00 0.0000000000000000e+00  -5.0639567566077348e-02 1.2415493093815633e-01 0.0000000000000000e+00  -5.1212080880890356e-03 4.8398038018209286e-02 0.0000000000000000e+00  5.7321277753331883e-03 -5.6511772939927110e-02 0.0000000000000000e+00  -5.7625152470248547e-03 -1.1125136850086238e-02 0.0000000000000000e+00  2.8754067735808262e-03 -1.1446053916858934e-02 0.0000000000000000e+00  1.0136263754945182e-02 -7.6338899859602098e-03 0.0000000000000000e+00  2.5661881995498754e-02 -5.8082726448909834e-02 0.0000000000000000e+00  -1.3472640846267314e-02 3.1581537671110715e-02 0.0000000000000000e+00  -2.2321970984284855e-02 1.3924709806404650e-01 0.0000000000000000e+00  -7.4422239079963115e-01 1.6585228076773109e+00 0.0000000000000000e+00  7.3426766260833914e-02 -1.5459310248173019e-01 0.0000000000000000e+00  2.8730806855180313e-02 -5.2028887352237284e-02 0.0000000000000000e+00  4.3802676954320672e-03 -2.0547547887197299e-03 0.0000000000000000e+00  7.8142501702431651e-04 -8.4737530387798427e-03 0.0000000000000000e+00  1.7755974198929308e-02 -1.7891855094358229e-03 0.0000000000000000e+00  7.4645322639307413e-03 3.7613256577639274e-02 0.0000000000000000e+00  3.9202632290331656e-02 -9.4321641880629831e-02 0.0000000000000000e+00  -3.8269173721712718e-01 8.8312504914379530e-01 0.0000000000000000e+00  5.7307928162027988e-01 -7.7244106017738590e-01 0.0000000000000000e+00  -6.2068854682730858e-02 8.1091844690475687e-02 0.0000000000000000e+00  3.6325314576908511e-02 -1.2417140101736088e-02 0.0000000000000000e+00  7.2267307578980618e-03 1.5712927287115260e-02 0.0000000000000000e+00  -7.0260783874610015e-03 6.4472862670590988e-03 0.0000000000000000e+00  -1.0199107966431971e-05 5.0483145910219284e-03 0.0000000000000000e+00  -3.0673791153941234e-02 5.0898525011594767e-02 0.0000000000000000e+00  -9.7101615171308914e-02 1.4080225732505089e-01 0.0000000000000000e+00  1.0636786439074071e+00 -1.4730468684159319e+00 0.0000000000000000e+00  1.1036009484682426e-01 -8.9207078655698741e-02 0.0000000000000000e+00  2.7494938212869746e-02 -3.8179838779455001e-02 0.0000000000000000e+00  -3.3362741653630346e-02 4.6258170605697757e-02 0.0000000000000000e+00  -1.1292851026717839e-03 1.1811218053471562e-02 0.0000000000000000e+00  -9.5180121733646761e-03 9.7450848588172181e-03 0.0000000000000000e+00  -1.2464101887105047e-02 1.0234073841774896e-03 0.0000000000000000e+00  -5.1066175904803154e-02 3.6802306593838464e-02 0.0000000000000000e+00  2.7372806073780235e-02 -1.9916458480602344e-02 0.0000000000000000e+00  8.1227322094358859e-02 -1.0606299506811250e-01 0.0000000000000000e+00  1.4719238738740370e+00 -1.0630474622409498e+00 0.0000000000000000e+00  -1.4044290779738852e-01 9.6864732640996334e-02 0.0000000000000000e+00  -5.1029137409638527e-02 3.0733318485258999e-02 0.0000000000000000e+00  -5.0808668190594607e-03 3.6244500969681626e-05 0.0000000000000000e+00  -6.0736219041716121e-03 6.6783635230283781e-03 0.0000000000000000e+00  -1.5802256230416367e-02 -7.0199381700923880e-03 0.0000000000000000e+00  1.2404779138158108e-02 -3.6331462504907215e-02 0.0000000000000000e+00  -8.1059822772594853e-02 6.2052002783451431e-02 0.0000000000000000e+00  7.7221124968819210e-01 -5.7293912998806673e-01 0.0000000000000000e+00  -8.8340585009600392e-01 3.8279046676588424e-01 0.0000000000000000e+00  9.4349613900240603e-02 -3.9210918540740797e-02 0.0000000000000000e+00  -3.7622120946505425e-02 -7.4706365251665866e-03 0.0000000000000000e+00  1.8280855663930764e-03 -1.7763326571190827e-02 0.0000000000000000e+00  8.4927636684672975e-03 -7.8311588792662635e-04 0.0000000000000000e+00  2.0663707102999275e-03 -4.3789756773523593e-03 0.0000000000000000e+00  5.2067001934014319e-02 -2.8742030168429716e-02 0.0000000000000000e+00  1.5449069494710729e-01 -7.3452859040604418e-02 0.0000000000000000e+00  -1.6584847736658856e+00 7.4438694098098068e-01 0.0000000000000000e+00  -1.3552006021070659e-01 1.8311342255157983e-02 0.0000000000000000e+00  -3.1655595215142211e-02 1.3943456537012308e-02 0.0000000000000000e+00  5.7771947187263611e-02 -2.5885073863838613e-02 0.0000000000000000e+00  7.4985372370684573e-03 -1.0142258013100000e-02 0.0000000000000000e+00  1.1588742478551158e-02 -2.8743603233998003e-03 0.0000000000000000e+00  1.1154421941678712e-02 5.7132547783909993e-03 0.0000000000000000e+00  5.6726473609270585e-02 -5.9521399015658892e-03 0.0000000000000000e+00  -4.7993803078851698e-02 5.4304387969637104e-03 0.0000000000000000e+00  -1.3048674165007937e-01 5.0049897211021134e-02 0.0000000000000000e+00  -1.8010020979185837e+00 1.8425015453581425e-01 0.0000000000000000e+00  1.0840813792755084e-01 -8.4766332755068508e-03 0.0000000000000000e+00  6.5004125523448114e-02 -4.1293743734851861e-04 0.0000000000000000e+00  4.4558365975173519e-03 2.5943926197235889e-03 0.0000000000000000e+00  6.8837931902085755e-03 -2.7246084227697518e-03 0.0000000000000000e+00  9.7087593431315188e-03 1.4616616472113240e-02 0.0000000000000000e+00  -2.5306375451182854e-02 2.2182743140319480e-02 0.0000000000000000e+00  1.4873262785304028e-01 -1.9646143678572304e-02 0.0000000000000000e+00  -9.6212804576822042e-01 1.1074392177064982e-01 0.0000000000000000e+00  9.6146563351383030e-01 1.1069575455643794e-01 0.0000000000000000e+00  -1.4865556956354178e-01 -1.9643312415926463e-02 0.0000000000000000e+00  2.5294784926578478e-02 2.2207032597571692e-02 0.0000000000000000e+00  -9.6372636147171176e-03 1.4879739772259473e-02 0.0000000000000000e+00  -1.0458670541522193e-02 -3.5124336588759335e-03 0.0000000000000000e+00  -4.2126767904632689e-03 2.6237229384859836e-03 0.0000000000000000e+00  -6.5020970317867202e-02 -4.1617274122446383e-04 0.0000000000000000e+00  -1.0826421504315972e-01 -8.4269594533011825e-03 0.0000000000000000e+00  1.7998374523581060e+00 1.8395932094050274e-01 0.0000000000000000e+00  1.2415472929460104e-01 5.0640962322702973e-02 0.0000000000000000e+00  4.8376943220973710e-02 5.1137002222688202e-03 0.0000000000000000e+00  -5.6492553098651137e-02 -5.7245946414162434e-03 0.0000000000000000e+00  -1.1086006064928695e-02 5.7711276924707726e-03 0.0000000000000000e+00  -1.1381673864562774e-02 -2.8615335824484357e-03 0.0000000000000000e+00  -7.5908060978040464e-03 -1.0099981992911202e-02 0.0000000000000000e+00  -5.8095673486383975e-02 -2.5665377331430348e-02 0.0000000000000000e+00  3.1591911313972904e-02 1.3476344950258458e-02 0.0000000000000000e+00  1.3922844085014227e-01 2.2314677238792675e-02 0.0000000000000000e+00  1.6589622618126376e+00 7.4442724083077361e-01 0.0000000000000000e+00  -1.5464222198592378e-01 -7.3452102280576137e-02 0.0000000000000000e+00  -5.2035505591218945e-02 -2.8733157082659642e-02 0.0000000000000000e+00  -2.0024916303841632e-03 -4.3751073513315364e-03 0.0000000000000000e+00  -8.4261794978265133e-03 -7.8380096438283788e-04 0.0000000000000000e+00  -1.7828797586159002e-03 -1.7730578395061244e-02 0.0000000000000000e+00  3.7623631229517771e-02 -7.4355246332919534e-03 0.0000000000000000e+00  -9.4352138548705528e-02 -3.9219356083718342e-02 0.0000000000000000e+00  8.8352287336773694e-01 3.8287377283908697e-01 0.0000000000000000e+00  -7.7218727929981934e-01 -5.7291663451248387e-01 0.0000000000000000e+00  8.1064179583256901e-02 6.2057486180591211e-02 0.0000000000000000e+00  -1.2377687368136140e-02 -3.6342531235217093e-02 0.0000000000000000e+00  1.5795884389789232e-02 -7.2449997969669284e-03 0.0000000000000000e+00  6.5015027504939493e-03 7.0761838609962645e-03 0.0000000000000000e+00  5.0824050501611685e-03 5.7504243226832396e-05 0.0000000000000000e+00  5.0985105506682914e-02 3.0707679233456117e-02 0.0000000000000000e+00  1.4047659004538401e-01 9.6900781189487556e-02 0.0000000000000000e+00  -1.4718699715456096e+00 -1.0631153593166851e+00 0.0000000000000000e+00  -7.9724473223001621e-02 -1.0483860931917083e-01 0.0000000000000000e+00  -3.8817692219677229e-02 -2.7732859132623373e-02 0.0000000000000000e+00  4.5988895724645609e-02 3.2925034248671818e-02 0.0000000000000000e+00  1.1863847721086247e-02 1.1475262449278459e-03 0.0000000000000000e+00  9.7926060383976572e-03 9.5669991934258704e-03 0.0000000000000000e+00  1.0524756493351106e-03 1.2503222143519638e-02 0.0000000000000000e+00  3.7393160838882410e-02 5.1435864319700104e-02 0.0000000000000000e+00  -2.0012884359449749e-02 -2.7176871734488399e-02 0.0000000000000000e+00  -1.0971294645894779e-01 -8.8889684615931649e-02 0.0000000000000000e+00  -1.0639761665043150e+00 -1.4733503344362238e+00 0.0000000000000000e+00  9.7137447627564780e-02 1.4082435280315853e-01 0.0000000000000000e+00  3.0650186775861617e-02 5.0886455715667397e-02 0.0000000000000000e+00  1.5065009172145229e-04 4.8602670348592168e-03 0.0000000000000000e+00  6.9234396990850676e-03 5.9274963441603608e-03 0.0000000000000000e+00  -7.6725032463277254e-03 1.6940995752704666e-02 0.0000000000000000e+00  -3.6295535137509854e-02 -1.2428000163385695e-02 0.0000000000000000e+00  6.2093343376207706e-02 8.1135203052010371e-02 0.0000000000000000e+00  -5.7339604837557834e-01 -7.7291526496906926e-01 0.0000000000000000e+00  3.8484985886953960e-01 8.8806787626472139e-01 0.0000000000000000e+00  -5.7297185618204835e-02 -1.3854666433036786e-01 0.0000000000000000e+00  -6.6304076399135471e-03 3.3014092197608542e-02 0.0000000000000000e+00  -1.8919207123545653e-02 -1.7467816636319085e-03 0.0000000000000000e+00  -4.2977403992447915e-04 -8.4842674729720714e-03 0.0000000000000000e+00  -4.1029466966593592e-03 -1.9604005893447875e-03 0.0000000000000000e+00  -3.2172907006982596e-02 -5.6548683341771613e-02 0.0000000000000000e+00  -4.6836896230146252e-02 -9.7946508103405841e-02 0.0000000000000000e+00  7.4064949998533858e-01 1.6505902999392907e+00 0.0000000000000000e+00  1.8336111328902348e-02 1.3555980866545045e-01 0.0000000000000000e+00  1.3927518642957262e-02 3.1606194904179243e-02 0.0000000000000000e+00  -2.5875189227279757e-02 -5.7705268099322901e-02 0.0000000000000000e+00  -1.0088496873400341e-02 -7.4448261743113161e-03 0.0000000000000000e+00  -2.8540059982024657e-03 -1.1511013065746294e-02 0.0000000000000000e+00  5.6879686805706049e-03 -1.1081925298589737e-02 0.0000000000000000e+00  -5.9544024060944429e-03 -5.6717831823145548e-02 0.0000000000000000e+00  5.4304014755286872e-03 4.7986428655088766e-02 0.0000000000000000e+00  5.0037221885469593e-02 1.3045545628197266e-01 0.0000000000000000e+00  1.8419427492468340e-01 1.8005500981657385e+00 0.0000000000000000e+00  -8.4743821454657375e-03 -1.0836682225614581e-01 0.0000000000000000e+00  -4.1260906925673352e-04 -6.4994965129487298e-02 0.0000000000000000e+00  2.4409798394847281e-03 -4.1920689086944575e-03 0.0000000000000000e+00  -2.9853140149731223e-03 -6.7510509458035255e-03 0.0000000000000000e+00  1.5592057491892108e-02 -1.0101406674707554e-02 0.0000000000000000e+00  2.2184013214132648e-02 2.5320285320121646e-02 0.0000000000000000e+00  -1.9642890546692642e-02 -1.4869507887809366e-01 0.0000000000000000e+00  1.1071406239467876e-01 9.6178024299675080e-01 0.0000000000000000e+00  1.1071956950206828e-01 -9.6183584431863756e-01 0.0000000000000000e+00  -1.9647596316866193e-02 1.4869987095356849e-01 0.0000000000000000e+00  2.2207221117385011e-02 -2.5294000558709232e-02 0.0000000000000000e+00  1.5996936496549860e-02 1.0170936418995935e-02 0.0000000000000000e+00  -3.7969433125258521e-03 1.0476673627112481e-02 0.0000000000000000e+00  2.3894640258250387e-03 4.0993589115428100e-03 0.0000000000000000e+00  -3.9326615854160218e-04 6.4938019752444162e-02 0.0000000000000000e+00  -8.4793007361708122e-03 1.0838456215996968e-01 0.0000000000000000e+00  1.8418087547660578e-01 -1.8005710146032143e+00 0.0000000000000000e+00  5.0094349853562752e-02 -1.3050976074171039e-01 0.0000000000000000e+00  5.4148642931777687e-03 -4.7946770137967033e-02 0.0000000000000000e+00  -5.9624406217868011e-03 5.6716382664302310e-02 0.0000000000000000e+00  5.3226399423226102e-03 1.0515830063552844e-02 0.0000000000000000e+00  -2.5163121514104616e-03 1.1520887839329622e-02 0.0000000000000000e+00  -1.0786426676747838e-02 7.9859823077663688e-03 0.0000000000000000e+00  -2.5886046294833376e-02 5.7777681183141930e-02 0.0000000000000000e+00  1.3936997446215189e-02 -3.1636733994603074e-02 0.0000000000000000e+00  1.8364666943963045e-02 -1.3567969729482399e-01 0.0000000000000000e+00  7.4435125049434192e-01 -1.6583716800875890e+00 0.0000000000000000e+00  -7.3440751782647321e-02 1.5446089459725529e-01 0.0000000000000000e+00  -2.8750560429742254e-02 5.2077016540231766e-02 0.0000000000000000e+00  -4.4064807169514669e-03 2.0556709181028337e-03 0.0000000000000000e+00  -7.7998276425890825e-04 8.4758168174547191e-03 0.0000000000000000e+00  -1.7764684426224787e-02 1.7888196080711332e-03 0.0000000000000000e+00  -7.4398318505703703e-03 -3.7630490488653426e-02 0.0000000000000000e+00  -3.9210093880031473e-02 9.4342164242765592e-02 0.0000000000000000e+00  3.8278599856208539e-01 -8.8338994641575930e-01 0.0000000000000000e+00  -5.7299570801725253e-01 7.7229404921251354e-01 0.0000000000000000e+00  6.2062641743825496e-02 -8.1069947419393912e-02 0.0000000000000000e+00  -3.6346697178237644e-02 1.2373235059784223e-02 0.0000000000000000e+00  -7.2301551665126598e-03 -1.5721755338885389e-02 0.0000000000000000e+00  7.0302512224347767e-03 -6.4513101805401011e-03 0.0000000000000000e+00  9.9369376680652490e-06 -5.0522190728201763e-03 0.0000000000000000e+00  3.0714524048083034e-02 -5.0996393892204193e-02 0.0000000000000000e+00  9.6907960152423422e-02 -1.4048929792054712e-01 0.0000000000000000e+00  -1.0632584025116831e+00 1.4720642024284454e+00 0.0000000000000000e+00  -1.0482870448298119e-01 7.9713422792982408e-02 0.0000000000000000e+00  -2.7746898199666310e-02 3.8828987445888558e-02 0.0000000000000000e+00  3.2933443911914127e-02 -4.5999036284482805e-02 0.0000000000000000e+00  1.1296586472612840e-03 -1.1820117154050238e-02 0.0000000000000000e+00  9.5199804738200205e-03 -9.7447348666679888e-03 0.0000000000000000e+00  1.2461706053782001e-02 -1.0303729342655084e-03 0.0000000000000000e+00  5.1397345994000004e-02 -3.7349757667423732e-02 0.0000000000000000e+00  -2.7168295684677032e-02 2.0003960169185472e-02 0.0000000000000000e+00  -8.8896001913225733e-02 1.0971456685987194e-01 0.0000000000000000e+00  -1.4731465514072239e+00 1.0638199805371176e+00 0.0000000000000000e+00  1.4079281313744657e-01 -9.7111129731153795e-02 0.0000000000000000e+00  5.0918868793980214e-02 -3.0693105027873428e-02 0.0000000000000000e+00  5.0863854844415040e-03 -5.1378934544103550e-05 0.0000000000000000e+00  6.0780022074842658e-03 -6.6903874309078631e-03 0.0000000000000000e+00  1.5854014495686373e-02 7.0704957771402701e-03 0.0000000000000000e+00  -1.2428974129378418e-02 3.6295802125319312e-02 0.0000000000000000e+00  8.1121637036891764e-02 -6.2085483545299913e-02 0.0000000000000000e+00  -7.7275880548872011e-01 5.7328571522077165e-01 0.0000000000000000e+00  8.8822914385825280e-01 -3.8494227575768730e-01 0.0000000000000000e+00  -1.3855937629997936e-01 5.7308329853567222e-02 0.0000000000000000e+00  3.3004580772599948e-02 6.6252782675909139e-03 0.0000000000000000e+00  -1.8441419324409496e-03 1.8938075150920355e-02 0.0000000000000000e+00  -8.5403360814063356e-03 4.8169607944530959e-04 0.0000000000000000e+00  -2.0111668078039869e-03 4.1043358415425264e-03 0.0000000000000000e+00  -5.6498904895582715e-02 3.2147779556170916e-02 0.0000000000000000e+00  -9.8069527359751676e-02 4.6846032052128443e-02 0.0000000000000000e+00  1.6512633224025277e+00 -7.4076102825977064e-01 0.0000000000000000e+00  1.3795378605419362e-01 -2.1793285018570755e-02 0.0000000000000000e+00  4.4228365915640520e-02 -1.9287767383454047e-02 0.0000000000000000e+00  -5.2077862160383334e-02 2.3200867262226171e-02 0.0000000000000000e+00  -7.4836185792113239e-03 1.0117958637153531e-02 0.0000000000000000e+00  -1.1566709023014439e-02 2.8822951210335443e-03 0.0000000000000000e+00  -1.1147856833179022e-02 -5.7235384484704104e-03 0.0000000000000000e+00  -6.2932153363533055e-02 6.5984692688309757e-03 0.0000000000000000e+00  3.4373857032419179e-02 -3.9250928132393064e-03 0.0000000000000000e+00  1.2529381947915955e-01 -5.0746881932743272e-02 0.0000000000000000e+00  1.8079814046117555e+00 -1.8460972274488974e-01 0.0000000000000000e+00  -1.7047243993806524e-01 1.3654001385527820e-02 0.0000000000000000e+00  -5.9402695665036392e-02 1.1273931718262711e-03 0.0000000000000000e+00  -4.3955511128065030e-03 -2.6166339191069942e-03 0.0000000000000000e+00  -6.8537320125422957e-03 2.7208121666040014e-03 0.0000000000000000e+00  -9.6716814966810137e-03 -1.4621886480146734e-02 0.0000000000000000e+00  2.8917095248754965e-02 -2.5215536815498769e-02 0.0000000000000000e+00  -1.0130723703963990e-01 1.3202472637478849e-02 0.0000000000000000e+00  9.5597605721040158e-01 -1.1011084437966981e-01 0.0000000000000000e+00  -9.6174842156628126e-01 -1.1072723026810748e-01 0.0000000000000000e+00  1.4866182514525514e-01 1.9653716534029909e-02 0.0000000000000000e+00  -2.5271069651961010e-02 -2.2237561105530629e-02 0.0000000000000000e+00  9.6568357255782927e-03 -1.4894454318803268e-02 0.0000000000000000e+00  1.0499908747034494e-02 3.5161680741356777e-03 0.0000000000000000e+00  4.2272616191555536e-03 -2.5917485882053907e-03 0.0000000000000000e+00  6.4990838144652882e-02 4.0617440330516615e-04 0.0000000000000000e+00  1.0830005955402168e-01 8.4295335571794860e-03 0.0000000000000000e+00  -1.8003400096851101e+00 -1.8401451594019605e-01 0.0000000000000000e+00  -1.2414521589919177e-01 -5.0635688375128989e-02 0.0000000000000000e+00  -4.8402748815186046e-02 -5.1245835282274161e-03 0.0000000000000000e+00  5.6530033287257274e-02 5.7477308638591964e-03 0.0000000000000000e+00  1.0504481457096563e-02 -5.3434917594868516e-03 0.0000000000000000e+00  1.1491533243627962e-02 2.5239071972567037e-03 0.0000000000000000e+00  7.9705884324044376e-03 1.0761195026136247e-02 0.0000000000000000e+00  5.8096586700134262e-02 2.5665978967688442e-02 0.0000000000000000e+00  -3.1589505308176606e-02 -1.3475949203627609e-02 0.0000000000000000e+00  -1.3923768333779205e-01 -2.2315212134733593e-02 0.0000000000000000e+00  -1.6589588137838820e+00 -7.4442346544004634e-01 0.0000000000000000e+00  1.5464622699879466e-01 7.3452998592663507e-02 0.0000000000000000e+00  5.2017383619744138e-02 2.8729336081395770e-02 0.0000000000000000e+00  1.9729045234556375e-03 4.1270022559651270e-03 0.0000000000000000e+00  8.5200811886988210e-03 4.7510888355362552e-04 0.0000000000000000e+00  1.7887799564294288e-03 1.8940570168641868e-02 0.0000000000000000e+00  -3.7611234043836386e-02 7.4333182946850727e-03 0.0000000000000000e+00  9.4364076073686021e-02 3.9234606148185545e-02 0.0000000000000000e+00  -8.8355336599828005e-01 -3.8289581126375810e-01 0.0000000000000000e+00  7.7691499411853215e-01 5.7634730241171872e-01 0.0000000000000000e+00  -1.1885963859394048e-01 -9.1311648373449683e-02 0.0000000000000000e+00  1.0811452084678080e-02 3.1914742624198612e-02 0.0000000000000000e+00  -1.5802795013168312e-02 7.2795176528846831e-03 0.0000000000000000e+00  -6.4694979614732060e-03 -7.0561184726392291e-03 0.0000000000000000e+00  -5.0767862555859836e-03 -3.9035178530736013e-05 0.0000000000000000e+00  -5.6191209933518810e-02 -3.2852584663138971e-02 0.0000000000000000e+00  -8.9353781477001362e-02 -6.1346490621907626e-02 0.0000000000000000e+00  1.4655467458885867e+00 1.0587814787056340e+00 0.0000000000000000e+00  7.9770699262044484e-02 1.0487080484444522e-01 0.0000000000000000e+00  3.8788744129332198e-02 2.7713482262803863e-02 0.0000000000000000e+00  -4.5999552939770816e-02 -3.2931880795141109e-02 0.0000000000000000e+00  -1.1842147852642183e-02 -1.1391760026450940e-03 0.0000000000000000e+00  -9.7696391773270212e-03 -9.5439410270824841e-03 0.0000000000000000e+00  -1.0393380