<?xml version="1.0"?>
<VTKFile type="UnstructuredGrid"  version="0.1"  >
<UnstructuredGrid>
<Piece  NumberOfPoints="3091" NumberOfCells="6066">
<Points>
<DataArray  type="Float64"  NumberOfComponents="3"  format="ascii">0.1026080539034498 0.008977041503008791 0  0.1021188207215025 0.01344419779866531 0  0.08228992349402627 0.01083367395426428 0  0.08258238701482568 0.008315609113802332 0  0.08059244997832385 0.00811523299057818 0  0.07850770368624711 0.01993841673534844 0  0.08044616550566062 0.02043072332140642 0  0.08103256859095448 0.01796448795686254 0  0.1005584887333531 0.02229328023562459 0  0.09949036010777403 0.02665836164555964 0  0.09823284592706737 0.03097269734894013 0  0.07915850691210284 0.02495858135885467 0  0.07988378462565272 0.02252955733880117 0  0.07795887415274544 0.02198667643907102 0  0.07385272552974417 0.03326822706169166 0  0.07567624961689835 0.03408966476691861 0  0.07668200119843681 0.03176272488630245 0  0.09515959184866253 0.03941639353360425 0  0.09334970206477494 0.04352968095929204 0  0.09136211581735683 0.04756010716320849 0  0.0736218991537924 0.03832513489850781 0  0.07475795386377479 0.03605895636456662 0  0.07295655738512961 0.03519006584975778 0  0.06695376967930228 0.04558719914330055 0  0.06860694917755666 0.04671280899869069 0  0.07000149000246952 0.04459586749278639 0  0.08686931891872722 0.05534185965972286 0  0.08437266056176615 0.05907837294415774 0  0.08171539404999721 0.06270242718789822 0  0.06584832724417253 0.05052719860772381 0  0.06736064050309602 0.04849272224790706 0  0.065737492539166 0.04732422291663219 0  0.058020457417397 0.05652102724717609 0  0.05945306130424632 0.05791660816685945 0  0.0611940189552403 0.0560739872320998 0  0.07593956569144278 0.069585791384413 0  0.0728319984622144 0.07283199846221439 0  0.06958579138441301 0.07593956569144276 0  0.05607398723209981 0.06119401895524029 0  0.05791660816685946 0.0594530613042463 0  0.0565210272471761 0.05802045741739699 0  0.0473242229166322 0.06573749253916598 0  0.04849272224790706 0.06736064050309601 0  0.05052719860772382 0.06584832724417251 0  0.06270242718789823 0.08171539404999721 0  0.05907837294415775 0.08437266056176614 0  0.05534185965972286 0.08686931891872721 0  0.04459586749278639 0.07000149000246951 0  0.0467128089986907 0.06860694917755665 0  0.04558719914330056 0.06695376967930228 0  0.03519006584975779 0.07295655738512961 0  0.03605895636456662 0.07475795386377479 0  0.03832513489850781 0.0736218991537924 0  0.04756010716320849 0.09136211581735683 0  0.04352968095929206 0.09334970206477493 0  0.03941639353360425 0.09515959184866253 0  0.03176272488630246 0.07668200119843681 0  0.03408966476691862 0.07567624961689835 0  0.03326822706169167 0.07385272552974417 0  0.02198667643907102 0.07795887415274544 0  0.02252955733880117 0.07988378462565272 0  0.02495858135885468 0.07915850691210283 0  0.03097269734894014 0.09823284592706735 0  0.02665836164555966 0.09949036010777403 0  0.0222932802356246 0.1005584887333531 0  0.01796448795686254 0.08103256859095448 0  0.02043072332140643 0.08044616550566062 0  0.01993841673534845 0.07850770368624711 0  0.008115232990578182 0.08059244997832385 0  0.008315609113802334 0.08258238701482568 0  0.01083367395426429 0.08228992349402627 0  0.01344419779866533 0.1021188207215025 0  0.00897704150300881 0.1026080539034498 0  0.004492796898629609 0.1029019668229313 0  0.003620409151322889 0.0829210023912942 0  0.006151004686218146 0.08277176536325732 0  0.006002787705827346 0.08077726499305835 0  -0.006002787705827337 0.08077726499305835 0  -0.006151004686218136 0.08277176536325732 0  -0.003620409151322879 0.0829210023912942 0  -0.004492796898629596 0.1029019668229313 0  -0.008977041503008775 0.1026080539034498 0  -0.01344419779866531 0.1021188207215025 0  -0.01083367395426428 0.08228992349402627 0  -0.008315609113802325 0.08258238701482568 0  -0.008115232990578173 0.08059244997832385 0  -0.01993841673534844 0.07850770368624711 0  -0.02043072332140642 0.08044616550566062 0  -0.01796448795686253 0.08103256859095448 0  -0.02229328023562459 0.1005584887333531 0  -0.02665836164555962 0.09949036010777403 0  -0.03097269734894013 0.09823284592706737 0  -0.02495858135885468 0.07915850691210284 0  -0.02252955733880116 0.07988378462565272 0  -0.02198667643907101 0.07795887415274544 0  -0.03326822706169166 0.07385272552974417 0  -0.03408966476691862 0.07567624961689835 0  -0.03176272488630245 0.07668200119843681 0  -0.03941639353360424 0.09515959184866253 0  -0.04352968095929203 0.09334970206477496 0  -0.04756010716320848 0.09136211581735684 0  -0.03832513489850781 0.07362189915379241 0  -0.03605895636456662 0.07475795386377479 0  -0.03519006584975778 0.07295655738512961 0  -0.04558719914330055 0.06695376967930228 0  -0.04671280899869069 0.06860694917755666 0  -0.04459586749278639 0.07000149000246951 0  -0.05534185965972286 0.08686931891872721 0  -0.05907837294415771 0.08437266056176618 0  -0.06270242718789819 0.08171539404999724 0  -0.05052719860772379 0.06584832724417254 0  -0.04849272224790704 0.06736064050309604 0  -0.04732422291663217 0.06573749253916601 0  -0.05652102724717608 0.05802045741739702 0  -0.05791660816685944 0.05945306130424632 0  -0.0560739872320998 0.0611940189552403 0  -0.069585791384413 0.07593956569144278 0  -0.07283199846221439 0.0728319984622144 0  -0.07593956569144276 0.06958579138441301 0  -0.06119401895524029 0.05607398723209981 0  -0.0594530613042463 0.05791660816685946 0  -0.058020457417397 0.0565210272471761 0  -0.065737492539166 0.04732422291663219 0  -0.06736064050309602 0.04849272224790706 0  -0.0658483272441725 0.05052719860772384 0  -0.0817153940499972 0.06270242718789824 0  -0.08437266056176614 0.05907837294415778 0  -0.08686931891872721 0.05534185965972288 0  -0.0700014900024695 0.04459586749278641 0  -0.06860694917755665 0.04671280899869071 0  -0.06695376967930228 0.04558719914330057 0  -0.07295655738512961 0.03519006584975779 0  -0.07475795386377479 0.03605895636456663 0  -0.07362189915379239 0.03832513489850785 0  -0.09136211581735681 0.04756010716320853 0  -0.09334970206477494 0.04352968095929204 0  -0.09515959184866253 0.03941639353360425 0  -0.07668200119843681 0.03176272488630246 0  -0.07567624961689835 0.03408966476691861 0  -0.07385272552974417 0.03326822706169166 0  -0.07795887415274544 0.02198667643907101 0  -0.07988378462565272 0.02252955733880116 0  -0.07915850691210286 0.02495858135885465 0  -0.09823284592706738 0.03097269734894011 0  -0.09949036010777403 0.02665836164555966 0  -0.1005584887333531 0.02229328023562463 0  -0.08103256859095447 0.01796448795686257 0  -0.08044616550566062 0.02043072332140644 0  -0.07850770368624711 0.01993841673534845 0  -0.08059244997832385 0.008115232990578187 0  -0.08258238701482568 0.008315609113802341 0  -0.08228992349402627 0.01083367395426428 0  -0.1021188207215025 0.01344419779866531 0  -0.1026080539034498 0.008977041503008839 0  -0.1029019668229313 0.004492796898629661 0  -0.0829210023912942 0.003620409151322931 0  -0.08277176536325731 0.006151004686218169 0  -0.08077726499305833 0.00600278770582737 0  -0.08077726499305835 -0.006002787705827315 0  -0.08277176536325732 -0.006151004686218113 0  -0.0829210023912942 -0.003620409151322874 0  -0.1029019668229313 -0.00449279689862959 0  -0.1026080539034498 -0.008977041503008768 0  -0.1021188207215025 -0.01344419779866529 0  -0.08228992349402628 -0.01083367395426426 0  -0.08258238701482568 -0.00831560911380232 0  -0.08059244997832385 -0.008115232990578166 0  -0.07850770368624711 -0.01993841673534843 0  -0.08044616550566062 -0.02043072332140642 0  -0.08103256859095448 -0.01796448795686251 0  -0.1005584887333531 -0.02229328023562456 0  -0.09949036010777404 -0.02665836164555959 0  -0.09823284592706738 -0.03097269734894008 0  -0.07915850691210286 -0.02495858135885463 0  -0.07988378462565274 -0.02252955733880114 0  -0.07795887415274544 -0.02198667643907099 0  -0.07385272552974419 -0.03326822706169164 0  -0.07567624961689837 -0.0340896647669186 0  -0.07668200119843682 -0.03176272488630241 0  -0.09515959184866256 -0.03941639353360419 0  -0.09334970206477496 -0.04352968095929202 0  -0.09136211581735684 -0.04756010716320847 0  -0.07362189915379241 -0.0383251348985078 0  -0.0747579538637748 -0.03605895636456661 0  -0.07295655738512963 -0.03519006584975778 0  -0.06695376967930228 -0.04558719914330055 0  -0.06860694917755666 -0.04671280899869069 0  -0.07000149000246951 -0.04459586749278639 0  -0.08686931891872721 -0.05534185965972286 0  -0.08437266056176618 -0.05907837294415771 0  -0.08171539404999724 -0.06270242718789819 0  -0.06584832724417254 -0.05052719860772379 0  -0.06736064050309604 -0.04849272224790704 0  -0.06573749253916601 -0.04732422291663217 0  -0.05802045741739702 -0.05652102724717608 0  -0.05945306130424632 -0.05791660816685944 0  -0.0611940189552403 -0.0560739872320998 0  -0.07593956569144278 -0.069585791384413 0  -0.0728319984622144 -0.07283199846221439 0  -0.06958579138441302 -0.07593956569144275 0  -0.05607398723209982 -0.06119401895524029 0  -0.05791660816685946 -0.0594530613042463 0  -0.0565210272471761 -0.05802045741739699 0  -0.04732422291663223 -0.06573749253916598 0  -0.04849272224790709 -0.06736064050309601 0  -0.05052719860772384 -0.0658483272441725 0  -0.06270242718789824 -0.0817153940499972 0  -0.05907837294415778 -0.08437266056176612 0  -0.05534185965972289 -0.08686931891872721 0  -0.04459586749278641 -0.0700014900024695 0  -0.04671280899869071 -0.06860694917755664 0  -0.04558719914330057 -0.06695376967930226 0  -0.03519006584975783 -0.0729565573851296 0  -0.03605895636456666 -0.07475795386377478 0  -0.03832513489850786 -0.07362189915379239 0  -0.04756010716320853 -0.09136211581735681 0  -0.04352968095929209 -0.09334970206477491 0  -0.0394163935336043 -0.0951595918486625 0  -0.0317627248863025 -0.07668200119843678 0  -0.03408966476691865 -0.07567624961689834 0  -0.03326822706169169 -0.07385272552974416 0  -0.02198667643907108 -0.07795887415274541 0  -0.02252955733880123 -0.07988378462565271 0  -0.02495858135885472 -0.
[...]
<PointData  Vectors="f_24"> 
<DataArray  type="Float64"  Name="f_24"  NumberOfComponents="3" format="ascii">0.0000000000000000e+00 0.0000000000000000e+00 0.0000000000000000e+00  0.0000000000000000e+00 0.0000000000000000e+00 0.0000000000000000e+00  0.0000000000000000e+00 0.0000000000000000e+00 0.0000000000000000e+00  0.0000000000000000e+00 0.0000000000000000e+00 0.0000000000000000e+00  0.0000000000000000e+00 0.0000000000000000e+00 0.0000000000000000e+00  0.0000000000000000e+00 0.0000000000000000e+00 0.0000000000000000e+00  0.0000000000000000e+00 0.0000000000000000e+00 0.0000000000000000e+00  0.0000000000000000e+00 0.0000000000000000e+00 0.0000000000000000e+00  0.0000000000000000e+00 0.0000000000000000e+00 0.0000000000000000e+00  0.0000000000000000e+00 0.0000000000000000e+00 0.0000000000000000e+00  0.0000000000000000e+00 0.0000000000000000e+00 0.0000000000000000e+00  0.0000000000000000e+00 0.0000000000000000e+00 0.0000000000000000e+00  0.0000000000000000e+00 0.0000000000000000e+00 0.0000000000000000e+00  0.0000000000000000e+00 0.0000000000000000e+00 0.0000000000000000e+00  0.0000000000000000e+00 0.0000000000000000e+00 0.0000000000000000e+00  0.0000000000000000e+00 0.0000000000000000e+00 0.0000000000000000e+00  0.0000000000000000e+00 0.0000000000000000e+00 0.0000000000000000e+00  0.0000000000000000e+00 0.0000000000000000e+00 0.0000000000000000e+00  0.0000000000000000e+00 0.0000000000000000e+00 0.0000000000000000e+00  0.0000000000000000e+00 0.0000000000000000e+00 0.0000000000000000e+00  0.0000000000000000e+00 0.0000000000000000e+00 0.0000000000000000e+00  0.0000000000000000e+00 0.0000000000000000e+00 0.0000000000000000e+00  0.0000000000000000e+00 0.0000000000000000e+00 0.0000000000000000e+00  0.0000000000000000e+00 0.0000000000000000e+00 0.0000000000000000e+00  0.0000000000000000e+00 0.0000000000000000e+00 0.0000000000000000e+00  0.0000000000000000e+00 0.0000000000000000e+00 0.0000000000000000e+00  0.0000000000000000e+00 0.0000000000000000e+00 0.0000000000000000e+00  0.0000000000000000e+00 0.0000000000000000e+00 0.0000000000000000e+00  0.0000000000000000e+00 0.0000000000000000e+00 0.0000000000000000e+00  0.0000000000000000e+00 0.0000000000000000e+00 0.0000000000000000e+00  0.0000000000000000e+00 0.0000000000000000e+00 0.0000000000000000e+00  0.0000000000000000e+00 0.0000000000000000e+00 0.0000000000000000e+00  0.0000000000000000e+00 0.0000000000000000e+00 0.0000000000000000e+00  0.0000000000000000e+00 0.0000000000000000e+00 0.0000000000000000e+00  0.0000000000000000e+00 0.0000000000000000e+00 0.0000000000000000e+00  0.0000000000000000e+00 0.0000000000000000e+00 0.0000000000000000e+00  0.0000000000000000e+00 0.0000000000000000e+00 0.0000000000000000e+00  0.0000000000000000e+00 0.0000000000000000e+00 0.0000000000000000e+00  0.0000000000000000e+00 0.0000000000000000e+00 0.0000000000000000e+00  0.0000000000000000e+00 0.0000000000000000e+00 0.0000000000000000e+00  0.0000000000000000e+00 0.0000000000000000e+00 0.0000000000000000e+00  0.0000000000000000e+00 0.0000000000000000e+00 0.0000000000000000e+00  0.0000000000000000e+00 0.0000000000000000e+00 0.0000000000000000e+00  0.0000000000000000e+00 0.0000000000000000e+00 0.0000000000000000e+00  0.0000000000000000e+00 0.0000000000000000e+00 0.0000000000000000e+00  0.0000000000000000e+00 0.0000000000000000e+00 0.0000000000000000e+00  0.0000000000000000e+00 0.0000000000000000e+00 0.0000000000000000e+00  0.0000000000000000e+00 0.0000000000000000e+00 0.0000000000000000e+00  0.0000000000000000e+00 0.0000000000000000e+00 0.0000000000000000e+00  0.0000000000000000e+00 0.0000000000000000e+00 0.0000000000000000e+00  0.0000000000000000e+00 0.0000000000000000e+00 0.0000000000000000e+00  0.0000000000000000e+00 0.0000000000000000e+00 0.0000000000000000e+00  0.0000000000000000e+00 0.0000000000000000e+00 0.0000000000000000e+00  0.0000000000000000e+00 0.0000000000000000e+00 0.0000000000000000e+00  0.0000000000000000e+00 0.0000000000000000e+00 0.0000000000000000e+00  0.0000000000000000e+00 0.0000000000000000e+00 0.0000000000000000e+00  0.0000000000000000e+00 0.0000000000000000e+00 0.0000000000000000e+00  0.0000000000000000e+00 0.0000000000000000e+00 0.0000000000000000e+00  0.0000000000000000e+00 0.0000000000000000e+00 0.0000000000000000e+00  0.0000000000000000e+00 0.0000000000000000e+00 0.0000000000000000e+00  0.0000000000000000e+00 0.0000000000000000e+00 0.0000000000000000e+00  0.0000000000000000e+00 0.0000000000000000e+00 0.0000000000000000e+00  0.0000000000000000e+00 0.0000000000000000e+00 0.0000000000000000e+00  0.0000000000000000e+00 0.0000000000000000e+00 0.0000000000000000e+00  0.0000000000000000e+00 0.0000000000000000e+00 0.0000000000000000e+00  0.0000000000000000e+00 0.0000000000000000e+00 0.0000000000000000e+00  0.0000000000000000e+00 0.0000000000000000e+00 0.0000000000000000e+00  0.0000000000000000e+00 0.0000000000000000e+00 0.0000000000000000e+00  0.0000000000000000e+00 0.0000000000000000e+00 0.0000000000000000e+00  0.0000000000000000e+00 0.0000000000000000e+00 0.0000000000000000e+00  0.0000000000000000e+00 0.0000000000000000e+00 0.0000000000000000e+00  0.0000000000000000e+00 0.0000000000000000e+00 0.0000000000000000e+00  0.0000000000000000e+00 0.0000000000000000e+00 0.0000000000000000e+00  0.0000000000000000e+00 0.0000000000000000e+00 0.0000000000000000e+00  0.0000000000000000e+00 0.0000000000000000e+00 0.0000000000000000e+00  0.0000000000000000e+00 0.0000000000000000e+00 0.0000000000000000e+00  0.0000000000000000e+00 0.0000000000000000e+00 0.0000000000000000e+00  0.0000000000000000e+00 0.0000000000000000e+00 0.0000000000000000e+00  0.0000000000000000e+00 0.0000000000000000e+00 0.0000000000000000e+00  0.0000000000000000e+00 0.0000000000000000e+00 0.0000000000000000e+00  0.0000000000000000e+00 0.0000000000000000e+00 0.0000000000000000e+00  0.0000000000000000e+00 0.0000000000000000e+00 0.0000000000000000e+00  0.0000000000000000e+00 0.0000000000000000e+00 0.0000000000000000e+00  0.0000000000000000e+00 0.0000000000000000e+00 0.0000000000000000e+00  0.0000000000000000e+00 0.0000000000000000e+00 0.0000000000000000e+00  0.0000000000000000e+00 0.0000000000000000e+00 0.0000000000000000e+00  0.0000000000000000e+00 0.0000000000000000e+00 0.0000000000000000e+00  0.0000000000000000e+00 0.0000000000000000e+00 0.0000000000000000e+00  0.0000000000000000e+00 0.0000000000000000e+00 0.0000000000000000e+00  0.0000000000000000e+00 0.0000000000000000e+00 0.0000000000000000e+00  0.0000000000000000e+00 0.0000000000000000e+00 0.0000000000000000e+00  0.0000000000000000e+00 0.0000000000000000e+00 0.0000000000000000e+00  0.0000000000000000e+00 0.0000000000000000e+00 0.0000000000000000e+00  0.0000000000000000e+00 0.0000000000000000e+00 0.0000000000000000e+00  0.0000000000000000e+00 0.0000000000000000e+00 0.0000000000000000e+00  0.0000000000000000e+00 0.0000000000000000e+00 0.0000000000000000e+00  0.0000000000000000e+00 0.0000000000000000e+00 0.0000000000000000e+00  0.0000000000000000e+00 0.0000000000000000e+00 0.0000000000000000e+00  0.0000000000000000e+00 0.0000000000000000e+00 0.0000000000000000e+00  0.0000000000000000e+00 0.0000000000000000e+00 0.0000000000000000e+00  0.0000000000000000e+00 0.0000000000000000e+00 0.0000000000000000e+00  0.0000000000000000e+00 0.0000000000000000e+00 0.0000000000000000e+00  0.0000000000000000e+00 0.0000000000000000e+00 0.0000000000000000e+00  0.0000000000000000e+00 0.0000000000000000e+00 0.0000000000000000e+00  0.0000000000000000e+00 0.0000000000000000e+00 0.0000000000000000e+00  0.0000000000000000e+00 0.0000000000000000e+00 0.0000000000000000e+00  0.0000000000000000e+00 0.0000000000000000e+00 0.0000000000000000e+00  0.0000000000000000e+00 0.0000000000000000e+00 0.0000000000000000e+00  0.0000000000000000e+00 0.0000000000000000e+00 0.0000000000000000e+00  0.0000000000000000e+00 0.0000000000000000e+00 0.0000000000000000e+00  0.0000000000000000e+00 0.0000000000000000e+00 0.0000000000000000e+00  0.0000000000000000e+00 0.0000000000000000e+00 0.0000000000000000e+00  0.0000000000000000e+00 0.0000000000000000e+00 0.0000000000000000e+00  0.0000000000000000e+00 0.0000000000000000e+00 0.0000000000000000e+00  0.0000000000000000e+00 0.0000000000000000e+00 0.0000000000000000e+00  0.0000000000000000e+00 0.0000000000000000e+00 0.0000000000000000e+00  0.0000000000000000e+00 0.0000000000000000e+00 0.0000000000000000e+00  0.0000000000000000e+00 0.0000000000000000e+00 0.0000000000000000e+00  0.0000000000000000e+00 0.0000000000000000e+00 0.0000000000000000e+00  0.0000000000000000e+00 0.0000000000000000e+00 0.0000000000000000e+00  0.0000000000000000e+00 0.0000000000000000e+00 0.0000000000000000e+00  0.0000000000000000e+00 0.0000000000000000e+00 0.0000000000000000e+00  0.0000000000000000e+00 0.0000000000000000e+00 0.0000000000000000e+00  0.0000000000000000e+00 0.0000000000000000e+00 0.0000000000000000e+00  0.0000000000000000e+00 0.0000000000000000e+00 0.0000000000000000e+00  0.0000000000000000e+00 0.0000000000000000e+00 0.0000000000000000e+00  0.0000000000000000e+00 0.0000000000000000e+00 0.0000000000000000e+00  0.0000000000000000e+00 0.0000000000000000e+00 0.0000000000000000e+00  0.0000000000000000e+00 0.0000000000000000e+00 0.0000000000000000e+00  0.0000000000000000e+00 0.0000000000000000e+00 0.0000000000000000e+00  0.0000000000000000e+00 0.0000000000000000e+00 0.0000000000000000e+00  0.0000000000000000e+00 0.0000000000000000e+00 0.0000000000000000e+00  0.0000000000000000e+00 0.0000000000000000e+00 0.0000000000000000e+00  0.0000000000000000e+00 0.0000000000000000e+00 0.0000000000000000e+00  0.0000000000000000e+00 0.0000000000000000e+00 0.0000000000000000e+00  0.0000000000000000e+00 0.0000000000000000e+00 0.0000000000000000e+00  0.0000000000000000e+00 0.0000000000000000e+00 0.0000000000000000e+00  0.0000000000000000e+00 0.0000000000000000e+00 0.0000000000000000e+00  0.0000000000000000e+00 0.0000000000000000e+00 0.0000000000000000e+00  0.0000000000000000e+00 0.0000000000000000e+00 0.0000000000000000e+00  0.0000000000000000e+00 0.0000000000000000e+00 0.0000000000000000e+00  0.0000000000000000e+00 0.0000000000000000e+00 0.0000000000000000e+00  0.0000000000000000e+00 0.0000000000000000e+00 0.0000000000000000e+00  0.0000000000000000e+00 0.0000000000000000e+00 0.0000000000000000e+00  0.0000000000000000e+00 0.0000000000000000e+00 0.0000000000000000e+00  0.0000000000000000e+00 0.0000000000000000e+00 0.0000000000000000e+00  0.0000000000000000e+00 0.0000000000000000e+00 0.0000000000000000e+00  0.0000000000000000e+00 0.0000000000000000e+00 0.0000000000000000e+00  0.0000000000000000e+00 0.0000000000000000e+00 0.0000000000000000e+00  0.0000000000000000e+00 0.0000000000000000e+00 0.0000000000000000e+00  0.0000000000000000e+00 0.0000000000000000e+00 0.0000000000000000e+00  0.0000000000000000e+00 0.0000000000000000e+00 0.0000000000000000e+00  0.0000000000000000e+00 0.0000000000000000e+00 0.0000000000000000e+00  0.0000000000000000e+00 0.0000000000000000e+00 0.0000000000000000e+00  0.0000000000000000e+00 0.0000000000000000e+00 0.0000000000000000e+00  0.0000000000000000e+00 0.0000000000000000e+00 0.0000000000000000e+00  0.0000000000000000e+00 0.0000000000000000e+00 0.0000000000000000e+00  0.0000000000000000e+00 0.0000000000000000e+00 0.0000000000000000e+00  0.0000000000000000e+00 0.0000000000000000e+00 0.0000000000000000e+00  0.0000000000000000e+00 0.0000000000000000e+00 0.0000000000000000e+00  0.0000000000000000e+00 0.0000000000000000e+00 0.0000000000000000e+00  0.0000000000000000e+00 0.0000000000000000e+00 0.0000000000000000e+00  0.0000000000000000e+00 0.0000000000000000e+00 0.0000000000000000e+00  0.0000000000000000e+00 0.0000000000000000e+00 0.0000000000000000e+00  0.0000000000000000e+00 0.0000000000000000e+00 0.0000000000000000e+00  0.0000000000000000e+00 0.0000000000000000e+00 0.0000000000000000e+00  0.0000000000000000e+00 0.0000000000000000e+00 0.0000000000000000e+00  0.0000000000000000e+00 0.0000000000000000e+00 0.0000000000000000e+00  0.0000000000000000e+00 0.0000000000000000e+00 0.0000000000000000e+00  0.0000000000000000e+00 0.0000000000000000e+00 0.0000000000000000e+00  0.0000000000000000e+00 0.0000000000000000e+00 0.0000000000000000e+00  0.0000000000000000e+00 0.0000000000000000e+00 0.0000000000000000e+00  0.0000000000000000e+00 0.0000000000000000e+00 0.0000000000000000e+00  0.0000000000000000e+00 0.0000000000000000e+00 0.0000000000000000e+00  0.0000000000000000e+00 0.0000000000000000e+00 0.0000000000000000e+00  0.0000000000000000e+00 0.0000000000000000e+00 0.0000000000000000e+00  0.0000000000000000e+00 0.0000000000000000e+00 0.0000000000000000e+00  0.0000000000000000e+00 0.0000000000000000e+00 0.0000000000000000e+00  0.0000000000000000e+00 0.0000000000000000e+00 0.0000000000000000e+00  0.0000000000000000e+00 0.0000000000000000e+00 0.0000000000000000e+00  0.0000000000000000e+00 0.0000000000000000e+00 0.0000000000000000e+00  0.0000000000000000e+00 0.0000000000000000e+00 0.0000000000000000e+00  0.0000000000000000e+00 0.0000000000000000e+00 0.0000000000000000e+00  0.0000000000000000e+00 0.0000000000000000e+00 0.0000000000000000e+00  0.0000000000000000e+00 0.0000000000000000e+00 0.0000000000000000e+00  0.0000000000000000e+00 0.0000000000000000e+00 0.0000000000000000e+00  0.0000000000000000e+00 0.0000000000000000e+00 0.0000000000000000e+00  0.0000000000000000e+00 0.0000000000000000e+00 0.0000000000000000e+00  0.0000000000000000e+00 0.0000000000000000e+00 0.0000000000000000e+00  0.0000000000000000e+00 0.0000000000000000e+00 0.0000000000000000e+00  0.0000000000000000e+00 0.0000000000000000e+00 0.0000000000000000e+00  0.0000000000000000e+00 0.0000000000000000e+00 0.0000000000000000e+00  0.0000000000000000e+00 0.0000000000000000e+00 0.0000000000000000e+00  0.0000000000000000e+00 0.0000000000000000e+00 0.0000000000000000e+00  0.0000000000000000e+00 0.0000000000000000e+00 0.0000000000000000e+00  0.0000000000000000e+00 0.0000000000000000e+00 0.0000000000000000e+00  0.0000000000000000e+00 0.0000000000000000e+00 0.0000000000000000e+00  0.0000000000000000e+00 0.0000000000000000e+00 0.0000000000000000e+00  0.0000000000000000e+00 0.0000000000000000e+00 0.0000000000000000e+00  0.0000000000000000e+00 0.0000000000000000e+00 0.0000000000000000e+00  0.0000000000000000e+00 0.0000000000000000e+00 0.0000000000000000e+00  0.0000000000000000e+00 0.0000000000000000e+00 0.0000000000000000e+00  0.0000000000000000e+00 0.0000000000000000e+00 0.0000000000000000e+00  0.0000000000000000e+00 0.0000000000000000e+00 0.0000000000000000e+00  0.0000000000000000e+00 0.0000000000000000e+00 0.0000000000000000e+00  0.0000000000000000e+00 0.0000000000000000e+00 0.0000000000000000e+00  0.0000000000000000e+00 0.0000000000000000e+00 0.0000000000000000e+00  0.0000000000000000e+00 0.0000000000000000e+00 0.0000000000000000e+00  0.0000000000000000e+00 0.0000000000000000e+00 0.0000000000000000e+00  0.0000000000000000e+00 0.0000000000000000e+00 0.0000000000000000e+00  0.0000000000000000e+00 0.0000000000000000e+00 0.0000000000000000e+00  0.0000000000000000e+00 0.0000000000000000e+00 0.0000000000000000e+00  0.0000000000000000e+00 0.0000000000000000e+00 0.0000000000000000e+00  0.0000000000000000e+00 0.0000000000000000e+00 0.0000000000000000e+00  0.0000000000000000e+00 0.0000000000000000e+00 0.0000000000000000e+00  0.0000000000000000e+00 0.0000000000000000e+00 0.0000000000000000e+00  0.0000000000000000e+00 0.0000000000000000e+00 0.0000000000000000e+00  0.0000000000000000e+00 0.0000000000000000e+00 0.0000000000000000e+00  0.0000000000000000e+00 0.0000000000000000e+00 0.0000000000000000e+00  0.0000000000000000e+00 0.0000000000000000e+00 0.0000000000000000e+00  0.0000000000000000e+00 0.0000000000000000e+00 0.0000000000000000e+00  0.0000000000000000e+00 0.0000000000000000e+00 0.0000000000000000e+00  0.0000000000000000e+00 0.0000000000000000e+00 0.0000000000000000e+00  0.0000000000000000e+00 0.0000000000000000e+00 0.0000000000000000e+00  0.0000000000000000e+00 0.0000000000000000e+00 0.0000000000000000e+00  0.0000000000000000e+00 0.0000000000000000e+00 0.0000000000000000e+00  0.0000000000000000e+00 0.0000000000000000e+00 0.0000000000000000e+00  0.0000000000000000e+00 0.0000000000000000e+00 0.0000000000000000e+00  0.0000000000000000e+00 0.0000000000000000e+00 0.0000000000000000e+00  0.0000000000000000e+00 0.0000000000000000e+00 0.0000000000000000e+00  0.0000000000000000e+00 0.0000000000000000e+00 0.0000000000000000e+00  0.0000000000000000e+00 0.0000000000000000e+00 0.0000000000000000e+00  0.0000000000000000e+00 0.0000000000000000e+00 0.0000000000000000e+00  0.0000000000000000e+00 0.0000000000000000e+00 0.0000000000000000e+00  0.0000000000000000e+00 0.0000000000000000e+00 0.0000000000000000e+00  0.0000000000000000e+00 0.0000000000000000e+00 0.0000000000000000e+00  0.0000000000000000e+00 0.0000000000000000e+00 0.0000000000000000e+00  0.0000000000000000e+00 0.0000000000000000e+00 0.0000000000000000e+00  0.0000000000000000e+00 0.0000000000000000e+00 0.0000000000000000e+00  0.0000000000000000e+00 0.0000000000000000e+00 0.0000000000000000e+00  0.0000000000000000e+00 0.0000000000000000e+00 0.0000000000000000e+00  0.0000000000000000e+00 0.0000000000000000e+00 0.0000000000000000e+00  0.0000000000000000e+00 0.0000000000000000e+00 0.0000000000000000e+00  0.0000000000000000e+00 0.0000000000000000e+00 0.0000000000000000e+00  0.0000000000000000e+00 0.0000000000000000e+00 0.0000000000000000e+00  0.0000000000000000e+00 0.0000000000000000e+00 0.0000000000000000e+00  0.0000000000000000e+00 0.0000000000000000e+00 0.0000000000000000e+00  0.0000000000000000e+00 0.0000000000000000e+00 0.0000000000000000e+00  0.0000000000000000e+00 0.0000000000000000e+00 0.0000000000000000e+00  0.0000000000000000e+00 0.0000000000000000e+00 0.0000000000000000e+00  0.0000000000000000e+00 0.0000000000000000e+00 0.0000000000000000e+00  0.0000000000000000e+00 0.0000000000000000e+00 0.0000000000000000e+00  0.0000000000000000e+00 0.0000000000000000e+00 0.0000000000000000e+00  0.0000000000000000e+00 0.0000000000000000e+00 0.0000000000000000e+00  0.0000000000000000e+00 0.0000000000000000e+00 0.0000000000000000e+00  0.0000000000000000e+00 0.0000000000000000e+00 0.0000000000000000e+00  0.0000000000000000e+00 0.0000000000000000e+00 0.0000000000000000e+00  0.0000000000000000e+00 0.0000000000000000e+00 0.0000000000000000e+00  0.0000000000000000e+00 0.0000000000000000e+00 0.0000000000000000e+00  0.0000000000000000e+00 0.0000000000000000e+00 0.0000000000000000e+00  0.0000000000000000e+00 0.0000000000000000e+00 0.0000000000000000e+00  0.0000000000000000e+00 0.0000000000000000e+00 0.0000000000000000e+00  0.0000000000000000e+00 0.0000000000000000e+00 0.0000000000000000e+00  0.0000000000000000e+00 0.0000000000000000e+00 0.0000000000000000e+00  0.0000000000000000e+00 0.0000000000000000e+00 0.0000000000000000e+00  0.0000000000000000e+00 0.0000000000000000e+00 0.0000000000000000e+00  0.0000000000000000e+00 0.0000000000000000e+00 0.0000000000000000e+00  0.0000000000000000e+00 0.0000000000000000e+00 0.0000000000000000e+00  0.0000000000000000e+00 0.0000000000000000e+00 0.0000000000000000e+00  0.0000000000000000e+00 0.0000000000000000e+00 0.0000000000000000e+00  0.0000000000000000e+00 0.0000000000000000e+00 0.0000000000000000e+00  0.0000000000000000e+00 0.0000000000000000e+00 0.0000000000000000e+00  0.0000000000000000e+00 0.0000000000000000e+00 0.0000000000000000e+00  0.0000000000000000e+00 0.0000000000000000e+00 0.0000000000000000e+00  0.0000000000000000e+00 0.0000000000000000e+00 0.0000000000000000e+00  0.0000000000000000e+00 0.0000000000000000e+00 0.0000000000000000e+00  0.0000000000000000e+00 0.0000000000000000e+00 0.0000000000000000e+00  0.0000000000000000e+00 0.0000000000000000e+00 0.0000000000000000e+00  0.0000000000000000e+00 0.0000000000000000e+00 0.0000000000000000e+00  0.0000000000000000e+00 0.0000000000000000e+00 0.0000000000000000e+00  0.0000000000000000e+00 0.0000000000000000e+00 0.0000000000000000e+00  0.0000000000000000e+00 0.0000000000000000e+00 0.0000000000000000e+00  0.0000000000000000e+00 0.0000000000000000e+00 0.0000000000000000e+00  0.0000000000000000e+00 0.0000000000000000e+00 0.0000000000000000e+00  0.0000000000